
     Program BANDS v.6.7MaX starts on 23Sep2024 at 16: 9:58 

     This program is part of the open-source Quantum ESPRESSO suite
     for quantum simulation of materials; please cite
         "P. Giannozzi et al., J. Phys.:Condens. Matter 21 395502 (2009);
         "P. Giannozzi et al., J. Phys.:Condens. Matter 29 465901 (2017);
          URL http://www.quantum-espresso.org", 
     in publications or presentations arising from this work. More details at
     http://www.quantum-espresso.org/quote

     Parallel version (MPI), running on     1 processors

     MPI processes distributed on     1 nodes

     Reading xml data from directory:

     ./work_Ag/Ag.save/
     Message from routine read_pp_mesh:
     mesh size missing, using the one in header

     IMPORTANT: XC functional enforced from input :
     Exchange-correlation= PBE
                           (   1   4   3   4   0   0   0)
     Any further DFT definition will be discarded
     Please, verify this is what you really want


     G-vector sticks info
     --------------------
     sticks:   dense  smooth     PW     G-vecs:    dense   smooth      PW
     Sum          85      61     31                  531      339     113


     Check: negative core charge=   -0.000198
     Reading collected, re-writing distributed wavefunctions
     high-symmetry point:  0.5000 0.5000 0.5000   x coordinate   0.0000
     high-symmetry point:  0.0000 0.0000 0.0000   x coordinate   0.8660
     high-symmetry point:  0.0000 1.0000 0.0000   x coordinate   1.8660
     high-symmetry point:  0.2500 1.0000 0.2500   x coordinate   2.2196
     high-symmetry point:  0.5000 1.0000 0.0000   x coordinate   2.5731
     high-symmetry point:  0.7500 0.7500 0.0000   x coordinate   2.9267
     high-symmetry point:  0.0000 0.0000 0.0000   x coordinate   3.9873

     Plottable bands (eV) written to file Ag.band.gnu
     Bands written to file Ag.band

 **************************************************************************

                    xk=(   0.50000,   0.50000,   0.50000  )

     point group D_3d (-3m) 
     there are  6 classes
     the character table:

       E     2C3   3C2'  i     2S6   3s_d 
A_1g   1.00  1.00  1.00  1.00  1.00  1.00
A_2g   1.00  1.00 -1.00  1.00  1.00 -1.00
E_g    2.00 -1.00  0.00  2.00 -1.00  0.00
A_1u   1.00  1.00  1.00 -1.00 -1.00 -1.00
A_2u   1.00  1.00 -1.00 -1.00 -1.00  1.00
E_u    2.00 -1.00  0.00 -2.00  1.00  0.00

     the symmetry operations in each class and the name of the first element:

     E        1
                                                                 
     2C3      5    6
                                                                 
     3C2'     2    4    3
                                                                 
     i        7
                                                                 
     2S6     11   12
                                                                 
     3s_d     8   10    9
                                                                 

     Band symmetry, D_3d (-3m)  point group:

     e(  1 -  1) =     22.48503  eV     1   --> A_1g L_1       
     e(  2 -  2) =     37.79008  eV     1   --> A_2u L_2'      
     e(  3 -  4) =     68.70605  eV     2   --> E_u  L_3'      
     e(  5 -  5) =    104.36847  eV     1   --> A_1g L_1       
     e(  6 -  7) =    104.74724  eV     2   --> E_g  L_3       
     e(  8 -  8) =    131.59230  eV     1   --> A_2u L_2'      
     e(  9 - 10) =    145.11947  eV     2   --> E_g  L_3       
     e( 11 - 11) =    161.04977  eV     1   --> A_2u L_2'      
     e( 12 - 13) =    174.68782  eV     2   --> E_u  L_3'      
     e( 14 - 14) =    198.84350  eV     1   --> A_1g L_1       

 **************************************************************************

 **************************************************************************

                    xk=(   0.48333,   0.48333,   0.48333  )

     point group C_3v (3m)  
     there are  3 classes
     the character table:

       E     2C3   3s_v 
A_1    1.00  1.00  1.00
A_2    1.00  1.00 -1.00
E      2.00 -1.00  0.00

     the symmetry operations in each class and the name of the first element:

     E        1
                                                                 
     2C3      2    3
                                                                 
     3s_v     4    5    6
                                                                 

     Band symmetry, C_3v (3m)   point group:

     e(  1 -  1) =     21.94928  eV     1   --> A_1  L_1       
     e(  2 -  2) =     37.80817  eV     1   --> A_1  L_1       
     e(  3 -  4) =     68.56754  eV     2   --> E    L_3       
     e(  5 -  5) =    103.00057  eV     1   --> A_1  L_1       
     e(  6 -  7) =    103.93657  eV     2   --> E    L_3       
     e(  8 -  8) =    131.36561  eV     1   --> A_1  L_1       
     e(  9 - 10) =    143.42526  eV     2   --> E    L_3       
     e( 11 - 11) =    160.68146  eV     1   --> A_1  L_1       
     e( 12 - 13) =    174.55707  eV     2   --> E    L_3       
     e( 14 - 14) =    197.61740  eV     1   --> A_1  L_1       

 **************************************************************************

 **************************************************************************

                    xk=(   0.46667,   0.46667,   0.46667  )

     Band symmetry, C_3v (3m)   point group:

     e(  1 -  1) =     21.64737  eV     1   --> A_1  L_1       
     e(  2 -  2) =     38.21059  eV     1   --> A_1  L_1       
     e(  3 -  4) =     68.58921  eV     2   --> E    L_3       
     e(  5 -  5) =    102.95890  eV     1   --> A_1  L_1       
     e(  6 -  7) =    104.00258  eV     2   --> E    L_3       
     e(  8 -  8) =    131.46519  eV     1   --> A_1  L_1       
     e(  9 - 10) =    142.80139  eV     2   --> E    L_3       
     e( 11 - 11) =    160.36410  eV     1   --> A_1  L_1       
     e( 12 - 13) =    175.31825  eV     2   --> E    L_3       
     e( 14 - 14) =    198.01480  eV     1   --> A_1  L_1       

 **************************************************************************

 **************************************************************************

                    xk=(   0.45000,   0.45000,   0.45000  )

     Band symmetry, C_3v (3m)   point group:

     e(  1 -  1) =     21.17100  eV     1   --> A_1  L_1       
     e(  2 -  2) =     38.86994  eV     1   --> A_1  L_1       
     e(  3 -  4) =     68.63078  eV     2   --> E    L_3       
     e(  5 -  5) =    102.93771  eV     1   --> A_1  L_1       
     e(  6 -  7) =    104.12041  eV     2   --> E    L_3       
     e(  8 -  8) =    131.62847  eV     1   --> A_1  L_1       
     e(  9 - 10) =    141.90904  eV     2   --> E    L_3       
     e( 11 - 11) =    159.84805  eV     1   --> A_1  L_1       
     e( 12 - 13) =    176.46342  eV     2   --> E    L_3       
     e( 14 - 14) =    198.66921  eV     1   --> A_1  L_1       

 **************************************************************************

 **************************************************************************

                    xk=(   0.43333,   0.43333,   0.43333  )

     Band symmetry, C_3v (3m)   point group:

     e(  1 -  1) =     20.55972  eV     1   --> A_1  L_1       
     e(  2 -  2) =     39.74608  eV     1   --> A_1  L_1       
     e(  3 -  4) =     68.69213  eV     2   --> E    L_3       
     e(  5 -  5) =    102.93697  eV     1   --> A_1  L_1       
     e(  6 -  7) =    104.28888  eV     2   --> E    L_3       
     e(  8 -  8) =    131.85417  eV     1   --> A_1  L_1       
     e(  9 - 10) =    140.80556  eV     2   --> E    L_3       
     e( 11 - 11) =    159.15781  eV     1   --> A_1  L_1       
     e( 12 - 13) =    177.93231  eV     2   --> E    L_3       
     e( 14 - 14) =    199.49284  eV     1   --> A_1  L_1       

 **************************************************************************

 **************************************************************************

                    xk=(   0.41667,   0.41667,   0.41667  )

     Band symmetry, C_3v (3m)   point group:

     e(  1 -  1) =     19.85258  eV     1   --> A_1  L_1       
     e(  2 -  2) =     40.79915  eV     1   --> A_1  L_1       
     e(  3 -  4) =     68.77311  eV     2   --> E    L_3       
     e(  5 -  5) =    102.95660  eV     1   --> A_1  L_1       
     e(  6 -  7) =    104.50638  eV     2   --> E    L_3       
     e(  8 -  8) =    132.14042  eV     1   --> A_1  L_1       
     e(  9 - 10) =    139.54749  eV     2   --> E    L_3       
     e( 11 - 11) =    158.32239  eV     1   --> A_1  L_1       
     e( 12 - 13) =    179.66306  eV     2   --> E    L_3       
     e( 14 - 14) =    199.46769  eV     1   --> A_1  L_1       

 **************************************************************************

 **************************************************************************

                    xk=(   0.40000,   0.40000,   0.40000  )

     Band symmetry, C_3v (3m)   point group:

     e(  1 -  1) =     19.08291  eV     1   --> A_1  L_1       
     e(  2 -  2) =     41.99477  eV     1   --> A_1  L_1       
     e(  3 -  4) =     68.87348  eV     2   --> E    L_3       
     e(  5 -  5) =    102.99643  eV     1   --> A_1  L_1       
     e(  6 -  7) =    104.77070  eV     2   --> E    L_3       
     e(  8 -  8) =    132.48467  eV     1   --> A_1  L_1       
     e(  9 - 10) =    138.18472  eV     2   --> E    L_3       
     e( 11 - 11) =    157.37204  eV     1   --> A_1  L_1       
     e( 12 - 13) =    181.59588  eV     2   --> E    L_3       
     e( 14 - 14) =    196.50549  eV     1   --> A_1  L_1       

 **************************************************************************

 **************************************************************************

                    xk=(   0.38333,   0.38333,   0.38333  )

     Band symmetry, C_3v (3m)   point group:

     e(  1 -  1) =     18.27701  eV     1   --> A_1  L_1       
     e(  2 -  2) =     43.30534  eV     1   --> A_1  L_1       
     e(  3 -  4) =     68.99297  eV     2   --> E    L_3       
     e(  5 -  5) =    103.05624  eV     1   --> A_1  L_1       
     e(  6 -  7) =    105.07901  eV     2   --> E    L_3       
     e(  8 -  8) =    132.88354  eV     1   --> A_1  L_1       
     e(  9 - 10) =    136.75877  eV     2   --> E    L_3       
     e( 11 - 11) =    156.33606  eV     1   --> A_1  L_1       
     e( 12 - 13) =    183.66977  eV     2   --> E    L_3       
     e( 14 - 14) =    193.13142  eV     1   --> A_1  L_1       

 **************************************************************************

 **************************************************************************

                    xk=(   0.36667,   0.36667,   0.36667  )

     Band symmetry, C_3v (3m)   point group:

     e(  1 -  1) =     17.45481  eV     1   --> A_1  L_1       
     e(  2 -  2) =     44.70929  eV     1   --> A_1  L_1       
     e(  3 -  4) =     69.13120  eV     2   --> E    L_3       
     e(  5 -  5) =    103.13567  eV     1   --> A_1  L_1       
     e(  6 -  7) =    105.42767  eV     2   --> E    L_3       
     e(  8 -  8) =    133.33264  eV     1   --> A_1  L_1       
     e(  9 - 10) =    135.30350  eV     2   --> E    L_3       
     e( 11 - 11) =    155.24165  eV     1   --> A_1  L_1       
     e( 12 - 13) =    185.80949  eV     2   --> E    L_3       
     e( 14 - 14) =    189.73989  eV     1   --> A_1  L_1       

 **************************************************************************

 **************************************************************************

                    xk=(   0.35000,   0.35000,   0.35000  )

     Band symmetry, C_3v (3m)   point group:

     e(  1 -  1) =     16.63124  eV     1   --> A_1  L_1       
     e(  2 -  2) =     46.18977  eV     1   --> A_1  L_1       
     e(  3 -  4) =     69.28769  eV     2   --> E    L_3       
     e(  5 -  5) =    103.23423  eV     1   --> A_1  L_1       
     e(  6 -  7) =    105.81209  eV     2   --> E    L_3       
     e(  8 -  8) =    133.82623  eV     1   --> A_1  L_1       
     e(  9 - 10) =    133.84663  eV     2   --> E    L_3       
     e( 11 - 11) =    154.11374  eV     1   --> A_1  L_1       
     e( 12 - 12) =    186.37721  eV     1   --> A_1  L_1       
     e( 13 - 14) =    187.89040  eV     2   --> E    L_3       

 **************************************************************************

 **************************************************************************

                    xk=(   0.33333,   0.33333,   0.33333  )

     Band symmetry, C_3v (3m)   point group:

     e(  1 -  1) =     15.81743  eV     1   --> A_1  L_1       
     e(  2 -  2) =     47.73331  eV     1   --> A_1  L_1       
     e(  3 -  4) =     69.46188  eV     2   --> E    L_3       
     e(  5 -  5) =    103.35128  eV     1   --> A_1  L_1       
     e(  6 -  7) =    106.22648  eV     2   --> E    L_3       
     e(  8 -  9) =    132.41153  eV     2   --> E    L_3       
     e( 10 - 10) =    134.35675  eV     1   --> A_1  L_1       
     e( 11 - 11) =    152.97529  eV     1   --> A_1  L_1       
     e( 12 - 12) =    183.06208  eV     1   --> A_1  L_1       
     e( 13 - 14) =    189.64309  eV     2   --> E    L_3       

 **************************************************************************

 **************************************************************************

                    xk=(   0.31667,   0.31667,   0.31667  )

     Band symmetry, C_3v (3m)   point group:

     e(  1 -  1) =     15.02174  eV     1   --> A_1  L_1       
     e(  2 -  2) =     49.32878  eV     1   --> A_1  L_1       
     e(  3 -  4) =     69.65304  eV     2   --> E    L_3       
     e(  5 -  5) =    103.48600  eV     1   --> A_1  L_1       
     e(  6 -  7) =    106.66352  eV     2   --> E    L_3       
     e(  8 -  9) =    131.01879  eV     2   --> E    L_3       
     e( 10 - 10) =    134.91417  eV     1   --> A_1  L_1       
     e( 11 - 11) =    151.84813  eV     1   --> A_1  L_1       
     e( 12 - 12) =    179.80743  eV     1   --> A_1  L_1       
     e( 13 - 14) =    190.49313  eV     2   --> E    L_3       

 **************************************************************************

 **************************************************************************

                    xk=(   0.30000,   0.30000,   0.30000  )

     Band symmetry, C_3v (3m)   point group:

     e(  1 -  1) =     14.25051  eV     1   --> A_1  L_1       
     e(  2 -  2) =     50.96652  eV     1   --> A_1  L_1       
     e(  3 -  4) =     69.86032  eV     2   --> E    L_3       
     e(  5 -  5) =    103.63733  eV     1   --> A_1  L_1       
     e(  6 -  7) =    107.11401  eV     2   --> E    L_3       
     e(  8 -  9) =    129.68767  eV     2   --> E    L_3       
     e( 10 - 10) =    135.48497  eV     1   --> A_1  L_1       
     e( 11 - 11) =    150.75394  eV     1   --> A_1  L_1       
     e( 12 - 12) =    176.62509  eV     1   --> A_1  L_1       
     e( 13 - 14) =    189.90735  eV     2   --> E    L_3       

 **************************************************************************

 **************************************************************************

                    xk=(   0.28333,   0.28333,   0.28333  )

     Band symmetry, C_3v (3m)   point group:

     e(  1 -  1) =     13.50862  eV     1   --> A_1  L_1       
     e(  2 -  2) =     52.63778  eV     1   --> A_1  L_1       
     e(  3 -  4) =     70.08268  eV     2   --> E    L_3       
     e(  5 -  5) =    103.80402  eV     1   --> A_1  L_1       
     e(  6 -  7) =    107.56641  eV     2   --> E    L_3       
     e(  8 -  9) =    128.43724  eV     2   --> E    L_3       
     e( 10 - 10) =    136.05081  eV     1   --> A_1  L_1       
     e( 11 - 11) =    149.71543  eV     1   --> A_1  L_1       
     e( 12 - 12) =    173.52780  eV     1   --> A_1  L_1       
     e( 13 - 14) =    188.25306  eV     2   --> E    L_3       

 **************************************************************************

 **************************************************************************

                    xk=(   0.26667,   0.26667,   0.26667  )

     Band symmetry, C_3v (3m)   point group:

     e(  1 -  1) =     12.79985  eV     1   --> A_1  L_1       
     e(  2 -  2) =     54.33413  eV     1   --> A_1  L_1       
     e(  3 -  4) =     70.31889  eV     2   --> E    L_3       
     e(  5 -  5) =    103.98456  eV     1   --> A_1  L_1       
     e(  6 -  7) =    108.00639  eV     2   --> E    L_3       
     e(  8 -  9) =    127.28741  eV     2   --> E    L_3       
     e( 10 - 10) =    136.58697  eV     1   --> A_1  L_1       
     e( 11 - 11) =    148.75728  eV     1   --> A_1  L_1       
     e( 12 - 12) =    170.53086  eV     1   --> A_1  L_1       
     e( 13 - 14) =    186.13837  eV     2   --> E    L_3       

 **************************************************************************

 **************************************************************************

                    xk=(   0.25000,   0.25000,   0.25000  )

     Band symmetry, C_3v (3m)   point group:

     e(  1 -  1) =     11.83399  eV     1   --> A_1  L_1       
     e(  2 -  2) =     55.68864  eV     1   --> A_1  L_1       
     e(  3 -  4) =     70.49885  eV     2   --> E    L_3       
     e(  5 -  5) =    103.74882  eV     1   --> A_1  L_1       
     e(  6 -  7) =    107.88787  eV     2   --> E    L_3       
     e(  8 -  9) =    123.97001  eV     2   --> E    L_3       
     e( 10 - 10) =    137.05833  eV     1   --> A_1  L_1       
     e( 11 - 11) =    147.81337  eV     1   --> A_1  L_1       
     e( 12 - 12) =    167.33667  eV     1   --> A_1  L_1       
     e( 13 - 14) =    181.58309  eV     2   --> E    L_3       

 **************************************************************************

 **************************************************************************

                    xk=(   0.23333,   0.23333,   0.23333  )

     Band symmetry, C_3v (3m)   point group:

     e(  1 -  1) =     11.19289  eV     1   --> A_1  L_1       
     e(  2 -  2) =     57.38553  eV     1   --> A_1  L_1       
     e(  3 -  4) =     70.74983  eV     2   --> E    L_3       
     e(  5 -  5) =    103.97733  eV     1   --> A_1  L_1       
     e(  6 -  7) =    108.19543  eV     2   --> E    L_3       
     e(  8 -  9) =    123.07356  eV     2   --> E    L_3       
     e( 10 - 10) =    137.43411  eV     1   --> A_1  L_1       
     e( 11 - 11) =    147.07923  eV     1   --> A_1  L_1       
     e( 12 - 12) =    164.55224  eV     1   --> A_1  L_1       
     e( 13 - 14) =    179.31356  eV     2   --> E    L_3       

 **************************************************************************

 **************************************************************************

                    xk=(   0.21667,   0.21667,   0.21667  )

     Band symmetry, C_3v (3m)   point group:

     e(  1 -  1) =     10.59158  eV     1   --> A_1  L_1       
     e(  2 -  2) =     59.08048  eV     1   --> A_1  L_1       
     e(  3 -  4) =     71.00834  eV     2   --> E    L_3       
     e(  5 -  5) =    104.21807  eV     1   --> A_1  L_1       
     e(  6 -  7) =    108.41852  eV     2   --> E    L_3       
     e(  8 -  9) =    122.35269  eV     2   --> E    L_3       
     e( 10 - 10) =    137.66083  eV     1   --> A_1  L_1       
     e( 11 - 11) =    146.50053  eV     1   --> A_1  L_1       
     e( 12 - 12) =    161.94629  eV     1   --> A_1  L_1       
     e( 13 - 14) =    177.07446  eV     2   --> E    L_3       

 **************************************************************************

 **************************************************************************

                    xk=(   0.20000,   0.20000,   0.20000  )

     Band symmetry, C_3v (3m)   point group:

     e(  1 -  1) =     10.03163  eV     1   --> A_1  L_1       
     e(  2 -  2) =     60.76305  eV     1   --> A_1  L_1       
     e(  3 -  4) =     71.27196  eV     2   --> E    L_3       
     e(  5 -  5) =    104.46874  eV     1   --> A_1  L_1       
     e(  6 -  7) =    108.53536  eV     2   --> E    L_3       
     e(  8 -  9) =    121.82898  eV     2   --> E    L_3       
     e( 10 - 10) =    137.70613  eV     1   --> A_1  L_1       
     e( 11 - 11) =    146.06267  eV     1   --> A_1  L_1       
     e( 12 - 12) =    159.57853  eV     1   --> A_1  L_1       
     e( 13 - 14) =    174.89266  eV     2   --> E    L_3       

 **************************************************************************

 **************************************************************************

                    xk=(   0.18333,   0.18333,   0.18333  )

     Band symmetry, C_3v (3m)   point group:

     e(  1 -  1) =      9.51435  eV     1   --> A_1  L_1       
     e(  2 -  2) =     62.42160  eV     1   --> A_1  L_1       
     e(  3 -  4) =     71.53798  eV     2   --> E    L_3       
     e(  5 -  5) =    104.72674  eV     1   --> A_1  L_1       
     e(  6 -  7) =    108.53240  eV     2   --> E    L_3       
     e(  8 -  9) =    121.51458  eV     2   --> E    L_3       
     e( 10 - 10) =    137.56727  eV     1   --> A_1  L_1       
     e( 11 - 11) =    145.68848  eV     1   --> A_1  L_1       
     e( 12 - 12) =    157.54148  eV     1   --> A_1  L_1       
     e( 13 - 14) =    172.78668  eV     2   --> E    L_3       

 **************************************************************************

 **************************************************************************

                    xk=(   0.16667,   0.16667,   0.16667  )

     Band symmetry, C_3v (3m)   point group:

     e(  1 -  1) =      9.04080  eV     1   --> A_1  L_1       
     e(  2 -  2) =     64.04292  eV     1   --> A_1  L_1       
     e(  3 -  4) =     71.80334  eV     2   --> E    L_3       
     e(  5 -  5) =    104.98927  eV     1   --> A_1  L_1       
     e(  6 -  7) =    108.40972  eV     2   --> E    L_3       
     e(  8 -  9) =    121.40674  eV     2   --> E    L_3       
     e( 10 - 10) =    137.27530  eV     1   --> A_1  L_1       
     e( 11 - 11) =    145.23025  eV     1   --> A_1  L_1       
     e( 12 - 12) =    155.96451  eV     1   --> A_1  L_1       
     e( 13 - 14) =    170.77152  eV     2   --> E    L_3       

 **************************************************************************

 **************************************************************************

                    xk=(   0.15000,   0.15000,   0.15000  )

     Band symmetry, C_3v (3m)   point group:

     e(  1 -  1) =      8.31615  eV     1   --> A_1  L_1       
     e(  2 -  2) =     65.25020  eV     1   --> A_1  L_1       
     e(  3 -  4) =     71.98692  eV     2   --> E    L_3       
     e(  5 -  5) =    103.93756  eV     1   --> A_1  L_1       
     e(  6 -  7) =    106.75190  eV     2   --> E    L_3       
     e(  8 -  9) =    120.36884  eV     2   --> E    L_3       
     e( 10 - 10) =    136.69690  eV     1   --> A_1  L_1       
     e( 11 - 11) =    143.51338  eV     1   --> A_1  L_1       
     e( 12 - 12) =    154.44121  eV     1   --> A_1  L_1       
     e( 13 - 14) =    167.70418  eV     2   --> E    L_3       

 **************************************************************************

 **************************************************************************

                    xk=(   0.13333,   0.13333,   0.13333  )

     Band symmetry, C_3v (3m)   point group:

     e(  1 -  1) =      7.92266  eV     1   --> A_1  L_1       
     e(  2 -  2) =     66.72822  eV     1   --> A_1  L_1       
     e(  3 -  4) =     72.22693  eV     2   --> E    L_3       
     e(  5 -  5) =    104.14974  eV     1   --> A_1  L_1       
     e(  6 -  7) =    106.34398  eV     2   --> E    L_3       
     e(  8 -  9) =    120.64312  eV     2   --> E    L_3       
     e( 10 - 10) =    136.20007  eV     1   --> A_1  L_1       
     e( 11 - 11) =    142.36304  eV     1   --> A_1  L_1       
     e( 12 - 12) =    154.27362  eV     1   --> A_1  L_1       
     e( 13 - 14) =    165.94094  eV     2   --> E    L_3       

 **************************************************************************

 **************************************************************************

                    xk=(   0.11667,   0.11667,   0.11667  )

     Band symmetry, C_3v (3m)   point group:

     e(  1 -  1) =      7.57461  eV     1   --> A_1  L_1       
     e(  2 -  2) =     68.11693  eV     1   --> A_1  L_1       
     e(  3 -  4) =     72.45293  eV     2   --> E    L_3       
     e(  5 -  5) =    104.35374  eV     1   --> A_1  L_1       
     e(  6 -  7) =    105.91155  eV     2   --> E    L_3       
     e(  8 -  9) =    121.00368  eV     2   --> E    L_3       
     e( 10 - 10) =    135.68896  eV     1   --> A_1  L_1       
     e( 11 - 11) =    141.04873  eV     1   --> A_1  L_1       
     e( 12 - 12) =    154.54454  eV     1   --> A_1  L_1       
     e( 13 - 14) =    164.31956  eV     2   --> E    L_3       

 **************************************************************************

 **************************************************************************

                    xk=(   0.10000,   0.10000,   0.10000  )

     Band symmetry, C_3v (3m)   point group:

     e(  1 -  1) =      7.27251  eV     1   --> A_1  L_1       
     e(  2 -  2) =     69.39518  eV     1   --> A_1  L_1       
     e(  3 -  4) =     72.66060  eV     2   --> E    L_3       
     e(  5 -  5) =    104.54605  eV     1   --> A_1  L_1       
     e(  6 -  7) =    105.48361  eV     2   --> E    L_3       
     e(  8 -  9) =    121.41110  eV     2   --> E    L_3       
     e( 10 - 10) =    135.19677  eV     1   --> A_1  L_1       
     e( 11 - 11) =    139.69547  eV     1   --> A_1  L_1       
     e( 12 - 12) =    155.10254  eV     1   --> A_1  L_1       
     e( 13 - 14) =    162.85707  eV     2   --> E    L_3       

 **************************************************************************

 **************************************************************************

                    xk=(   0.08333,   0.08333,   0.08333  )

     Band symmetry, C_3v (3m)   point group:

     e(  1 -  1) =      7.01676  eV     1   --> A_1  L_1       
     e(  2 -  2) =     70.54016  eV     1   --> A_1  L_1       
     e(  3 -  4) =     72.84562  eV     2   --> E    L_3       
     e(  5 -  5) =    104.72345  eV     1   --> A_1  L_1       
     e(  6 -  7) =    105.08448  eV     2   --> E    L_3       
     e(  8 -  9) =    121.82880  eV     2   --> E    L_3       
     e( 10 - 10) =    134.74802  eV     1   --> A_1  L_1       
     e( 11 - 11) =    138.40638  eV     1   --> A_1  L_1       
     e( 12 - 12) =    155.82054  eV     1   --> A_1  L_1       
     e( 13 - 14) =    161.57185  eV     2   --> E    L_3       

 **************************************************************************

 **************************************************************************

                    xk=(   0.06667,   0.06667,   0.06667  )

     Band symmetry, C_3v (3m)   point group:

     e(  1 -  1) =      6.80771  eV     1   --> A_1  L_1       
     e(  2 -  2) =     71.52817  eV     1   --> A_1  L_1       
     e(  3 -  4) =     73.00381  eV     2   --> E    L_3       
     e(  5 -  6) =    104.73360  eV     2   --> E    L_3       
     e(  7 -  7) =    104.88319  eV     1   --> A_1  L_1       
     e(  8 -  9) =    122.22351  eV     2   --> E    L_3       
     e( 10 - 10) =    134.36089  eV     1   --> A_1  L_1       
     e( 11 - 11) =    137.25602  eV     1   --> A_1  L_1       
     e( 12 - 12) =    156.59668  eV     1   --> A_1  L_1       
     e( 13 - 14) =    160.48323  eV     2   --> E    L_3       

 **************************************************************************

 **************************************************************************

                    xk=(   0.05000,   0.05000,   0.05000  )

     Band symmetry, C_3v (3m)   point group:

     e(  1 -  1) =      6.59653  eV     1   --> A_1  L_1       
     e(  2 -  2) =     72.24302  eV     1   --> A_1  L_1       
     e(  3 -  4) =     73.13137  eV     2   --> E    L_3       
     e(  5 -  5) =    103.97599  eV     1   --> A_1  L_1       
     e(  6 -  7) =    104.44603  eV     2   --> E    L_3       
     e(  8 -  9) =    122.56565  eV     2   --> E    L_3       
     e( 10 - 10) =    133.99287  eV     1   --> A_1  L_1       
     e( 11 - 11) =    135.95133  eV     1   --> A_1  L_1       
     e( 12 - 12) =    157.26922  eV     1   --> A_1  L_1       
     e( 13 - 14) =    159.61057  eV     2   --> E    L_3       

 **************************************************************************

 **************************************************************************

                    xk=(   0.03333,   0.03333,   0.03333  )

     Band symmetry, C_3v (3m)   point group:

     e(  1 -  1) =      6.47849  eV     1   --> A_1  L_1       
     e(  2 -  2) =     72.82445  eV     1   --> A_1  L_1       
     e(  3 -  4) =     73.22502  eV     2   --> E    L_3       
     e(  5 -  5) =    104.02209  eV     1   --> A_1  L_1       
     e(  6 -  7) =    104.23295  eV     2   --> E    L_3       
     e(  8 -  9) =    122.83001  eV     2   --> E    L_3       
     e( 10 - 10) =    133.75918  eV     1   --> A_1  L_1       
     e( 11 - 11) =    135.27794  eV     1   --> A_1  L_1       
     e( 12 - 12) =    157.88922  eV     1   --> A_1  L_1       
     e( 13 - 14) =    158.97189  eV     2   --> E    L_3       

 **************************************************************************

 **************************************************************************

                    xk=(   0.01667,   0.01667,   0.01667  )

     Band symmetry, C_3v (3m)   point group:

     e(  1 -  1) =      6.40761  eV     1   --> A_1  L_1       
     e(  2 -  2) =     73.18123  eV     1   --> A_1  L_1       
     e(  3 -  4) =     73.28227  eV     2   --> E    L_3       
     e(  5 -  5) =    104.04909  eV     1   --> A_1  L_1       
     e(  6 -  7) =    104.10208  eV     2   --> E    L_3       
     e(  8 -  9) =    122.99703  eV     2   --> E    L_3       
     e( 10 - 10) =    133.61667  eV     1   --> A_1  L_1       
     e( 11 - 11) =    134.86405  eV     1   --> A_1  L_1       
     e( 12 - 12) =    158.30434  eV     1   --> A_1  L_1       
     e( 13 - 14) =    158.58205  eV     2   --> E    L_3       

 **************************************************************************

 **************************************************************************

                    xk=(   0.00000,   0.00000,   0.00000  )

     point group O_h (m-3m) 
     there are 10 classes
     the character table:

       E     8C3   3C2   6C4   6C2'  i     8S6   3s_h  6S4   6s_d 
A_1g   1.00  1.00  1.00  1.00  1.00  1.00  1.00  1.00  1.00  1.00
A_2g   1.00  1.00  1.00 -1.00 -1.00  1.00  1.00  1.00 -1.00 -1.00
E_g    2.00 -1.00  2.00  0.00  0.00  2.00 -1.00  2.00  0.00  0.00
T_1g   3.00  0.00 -1.00  1.00 -1.00  3.00  0.00 -1.00  1.00 -1.00
T_2g   3.00  0.00 -1.00 -1.00  1.00  3.00  0.00 -1.00 -1.00  1.00
A_1u   1.00  1.00  1.00  1.00  1.00 -1.00 -1.00 -1.00 -1.00 -1.00
A_2u   1.00  1.00  1.00 -1.00 -1.00 -1.00 -1.00 -1.00  1.00  1.00
E_u    2.00 -1.00  2.00  0.00  0.00 -2.00  1.00 -2.00  0.00  0.00
T_1u   3.00  0.00 -1.00  1.00 -1.00 -3.00  0.00  1.00 -1.00  1.00
T_2u   3.00  0.00 -1.00 -1.00  1.00 -3.00  0.00  1.00  1.00 -1.00

     the symmetry operations in each class and the name of the first element:

     E        1
                                                                 
     8C3     17   19   20   18   24   21   22   23
                                                                 
     3C2      2    4    3
                                                                 
     6C4      7    8   15   16   12   11
                                                                 
     6C2'     5    6   14   13   10    9
                                                                 
     i       25
                                                                 
     8S6     41   43   44   42   48   45   46   47
                                                                 
     3s_h    26   28   27
                                                                 
     6S4     31   32   39   40   36   35
                                                                 
     6s_d    29   30   38   37   34   33
                                                                 

     Band symmetry, O_h (m-3m)  point group:

     e(  1 -  1) =      6.38397  eV     1   --> A_1g G_1   G_1+
     e(  2 -  4) =     73.30153  eV     3   --> T_1u G_15  G_4-
     e(  5 -  7) =    104.05796  eV     3   --> T_2g G_25' G_5+
     e(  8 -  9) =    123.05414  eV     2   --> E_g  G_12  G_3+
     e( 10 - 10) =    133.56882  eV     1   --> A_1g G_1   G_1+
     e( 11 - 11) =    134.72442  eV     1   --> A_2u G_2'  G_2-
     e( 12 - 14) =    158.45095  eV     3   --> T_1u G_15  G_4-

 **************************************************************************

 **************************************************************************

                    xk=(   0.00000,   0.03333,   0.00000  )

     point group C_4v (4mm) 
     there are  5 classes
     the character table:

       E     2C4   C2    2s_v  2s_d 
A_1    1.00  1.00  1.00  1.00  1.00
A_2    1.00  1.00  1.00 -1.00 -1.00
B_1    1.00 -1.00  1.00  1.00 -1.00
B_2    1.00 -1.00  1.00 -1.00  1.00
E      2.00  0.00 -2.00  0.00  0.00

     the symmetry operations in each class and the name of the first element:

     E        1
                                                                 
     2C4      3    4
                                                                 
     C2       2
                                                                 
     2s_v     5    6
                                                                 
     2s_d     7    8
                                                                 

     Band symmetry, C_4v (4mm)  point group:

     e(  1 -  1) =      6.41549  eV     1   --> A_1  G_1 D_1   
     e(  2 -  2) =     73.22905  eV     1   --> A_1  G_1 D_1   
     e(  3 -  4) =     73.23194  eV     2   --> E    G_5 D_5   
     e(  5 -  5) =    103.94182  eV     1   --> B_2  G_4 D_2'  
     e(  6 -  7) =    104.16921  eV     2   --> E    G_5 D_5   
     e(  8 -  8) =    122.87072  eV     1   --> A_1  G_1 D_1   
     e(  9 -  9) =    123.08450  eV     1   --> B_1  G_3 D_2   
     e( 10 - 10) =    133.63383  eV     1   --> A_1  G_1 D_1   
     e( 11 - 11) =    134.91042  eV     1   --> B_2  G_4 D_2'  
     e( 12 - 12) =    158.48861  eV     1   --> A_1  G_1 D_1   
     e( 13 - 14) =    158.50803  eV     2   --> E    G_5 D_5   

 **************************************************************************

 **************************************************************************

                    xk=(   0.00000,   0.06667,   0.00000  )

     Band symmetry, C_4v (4mm)  point group:

     e(  1 -  1) =      6.51000  eV     1   --> A_1  G_1 D_1   
     e(  2 -  2) =     73.01278  eV     1   --> A_1  G_1 D_1   
     e(  3 -  4) =     73.02658  eV     2   --> E    G_5 D_5   
     e(  5 -  5) =    103.60202  eV     1   --> B_2  G_4 D_2'  
     e(  6 -  7) =    104.49941  eV     2   --> E    G_5 D_5   
     e(  8 -  8) =    122.32407  eV     1   --> A_1  G_1 D_1   
     e(  9 -  9) =    123.17551  eV     1   --> B_1  G_3 D_2   
     e( 10 - 10) =    133.84052  eV     1   --> A_1  G_1 D_1   
     e( 11 - 11) =    135.45978  eV     1   --> B_2  G_4 D_2'  
     e( 12 - 12) =    158.59983  eV     1   --> A_1  G_1 D_1   
     e( 13 - 14) =    158.67930  eV     2   --> E    G_5 D_5   

 **************************************************************************

 **************************************************************************

                    xk=(   0.00000,   0.10000,   0.00000  )

     Band symmetry, C_4v (4mm)  point group:

     e(  1 -  1) =      6.66744  eV     1   --> A_1  G_1 D_1   
     e(  2 -  2) =     72.65623  eV     1   --> A_1  G_1 D_1   
     e(  3 -  4) =     72.69516  eV     2   --> E    G_5 D_5   
     e(  5 -  5) =    103.06218  eV     1   --> B_2  G_4 D_2'  
     e(  6 -  7) =    105.03852  eV     2   --> E    G_5 D_5   
     e(  8 -  8) =    121.43008  eV     1   --> A_1  G_1 D_1   
     e(  9 -  9) =    123.32696  eV     1   --> B_1  G_3 D_2   
     e( 10 - 10) =    134.21440  eV     1   --> A_1  G_1 D_1   
     e( 11 - 11) =    136.34887  eV     1   --> B_2  G_4 D_2'  
     e( 12 - 12) =    158.78036  eV     1   --> A_1  G_1 D_1   
     e( 13 - 14) =    158.96484  eV     2   --> E    G_5 D_5   

 **************************************************************************

 **************************************************************************

                    xk=(   0.00000,   0.13333,   0.00000  )

     Band symmetry, C_4v (4mm)  point group:

     e(  1 -  1) =      6.88764  eV     1   --> A_1  G_1 D_1   
     e(  2 -  2) =     72.16486  eV     1   --> A_1  G_1 D_1   
     e(  3 -  4) =     72.25212  eV     2   --> E    G_5 D_5   
     e(  5 -  5) =    102.35527  eV     1   --> B_2  G_4 D_2'  
     e(  6 -  7) =    105.77153  eV     2   --> E    G_5 D_5   
     e(  8 -  8) =    120.22385  eV     1   --> A_1  G_1 D_1   
     e(  9 -  9) =    123.53851  eV     1   --> B_1  G_3 D_2   
     e( 10 - 10) =    134.77705  eV     1   --> A_1  G_1 D_1   
     e( 11 - 11) =    137.54463  eV     1   --> B_2  G_4 D_2'  
     e( 12 - 12) =    159.02538  eV     1   --> A_1  G_1 D_1   
     e( 13 - 14) =    159.36478  eV     2   --> E    G_5 D_5   

 **************************************************************************

 **************************************************************************

                    xk=(   0.00000,   0.16667,   0.00000  )

     Band symmetry, C_4v (4mm)  point group:

     e(  1 -  1) =      7.37116  eV     1   --> A_1  G_1 D_1   
     e(  2 -  3) =     71.76719  eV     2   --> E    G_5 D_5   
     e(  4 -  4) =     71.86104  eV     1   --> A_1  G_1 D_1   
     e(  5 -  5) =    102.31990  eV     1   --> B_2  G_4 D_2'  
     e(  6 -  7) =    108.32911  eV     2   --> E    G_5 D_5   
     e(  8 -  8) =    118.81966  eV     1   --> A_1  G_1 D_1   
     e(  9 -  9) =    123.80966  eV     1   --> B_1  G_3 D_2   
     e( 10 - 10) =    135.73070  eV     1   --> A_1  G_1 D_1   
     e( 11 - 11) =    140.26849  eV     1   --> B_2  G_4 D_2'  
     e( 12 - 12) =    159.34306  eV     1   --> A_1  G_1 D_1   
     e( 13 - 14) =    160.12632  eV     2   --> E    G_5 D_5   

 **************************************************************************

 **************************************************************************

                    xk=(   0.00000,   0.20000,   0.00000  )

     Band symmetry, C_4v (4mm)  point group:

     e(  1 -  1) =      7.70870  eV     1   --> A_1  G_1 D_1   
     e(  2 -  2) =     71.12356  eV     1   --> A_1  G_1 D_1   
     e(  3 -  4) =     71.13787  eV     2   --> E    G_5 D_5   
     e(  5 -  5) =    101.27908  eV     1   --> B_2  G_4 D_2'  
     e(  6 -  7) =    109.36890  eV     2   --> E    G_5 D_5   
     e(  8 -  8) =    117.16938  eV     1   --> A_1  G_1 D_1   
     e(  9 -  9) =    124.13975  eV     1   --> B_1  G_3 D_2   
     e( 10 - 10) =    136.64242  eV     1   --> A_1  G_1 D_1   
     e( 11 - 11) =    142.04709  eV     1   --> B_2  G_4 D_2'  
     e( 12 - 12) =    159.72453  eV     1   --> A_1  G_1 D_1   
     e( 13 - 14) =    160.77914  eV     2   --> E    G_5 D_5   

 **************************************************************************

 **************************************************************************

                    xk=(   0.00000,   0.23333,   0.00000  )

     Band symmetry, C_4v (4mm)  point group:

     e(  1 -  1) =      8.10851  eV     1   --> A_1  G_1 D_1   
     e(  2 -  2) =     70.27169  eV     1   --> A_1  G_1 D_1   
     e(  3 -  4) =     70.45479  eV     2   --> E    G_5 D_5   
     e(  5 -  5) =    100.18948  eV     1   --> B_2  G_4 D_2'  
     e(  6 -  7) =    110.54155  eV     2   --> E    G_5 D_5   
     e(  8 -  8) =    115.37661  eV     1   --> A_1  G_1 D_1   
     e(  9 -  9) =    124.52795  eV     1   --> B_1  G_3 D_2   
     e( 10 - 10) =    137.73915  eV     1   --> A_1  G_1 D_1   
     e( 11 - 11) =    144.01480  eV     1   --> B_2  G_4 D_2'  
     e( 12 - 12) =    160.16521  eV     1   --> A_1  G_1 D_1   
     e( 13 - 14) =    161.54781  eV     2   --> E    G_5 D_5   

 **************************************************************************

 **************************************************************************

                    xk=(   0.00000,   0.26667,   0.00000  )

     Band symmetry, C_4v (4mm)  point group:

     e(  1 -  1) =      8.57019  eV     1   --> A_1  G_1 D_1   
     e(  2 -  2) =     69.31435  eV     1   --> A_1  G_1 D_1   
     e(  3 -  4) =     69.73329  eV     2   --> E    G_5 D_5   
     e(  5 -  5) =     99.07450  eV     1   --> B_2  G_4 D_2'  
     e(  6 -  7) =    111.83030  eV     2   --> E    G_5 D_5   
     e(  8 -  8) =    113.49400  eV     1   --> A_1  G_1 D_1   
     e(  9 -  9) =    124.97325  eV     1   --> B_1  G_3 D_2   
     e( 10 - 10) =    139.00554  eV     1   --> A_1  G_1 D_1   
     e( 11 - 11) =    146.14804  eV     1   --> B_2  G_4 D_2'  
     e( 12 - 12) =    160.66206  eV     1   --> A_1  G_1 D_1   
     e( 13 - 14) =    162.43211  eV     2   --> E    G_5 D_5   

 **************************************************************************

 **************************************************************************

                    xk=(   0.00000,   0.30000,   0.00000  )

     Band symmetry, C_4v (4mm)  point group:

     e(  1 -  1) =      9.24942  eV     1   --> A_1  G_1 D_1   
     e(  2 -  2) =     68.64029  eV     1   --> A_1  G_1 D_1   
     e(  3 -  4) =     68.98779  eV     2   --> E    G_5 D_5   
     e(  5 -  5) =     97.98363  eV     1   --> B_2  G_4 D_2'  
     e(  6 -  6) =    113.02056  eV     1   --> A_1  G_1 D_1   
     e(  7 -  8) =    113.89788  eV     2   --> E    G_5 D_5   
     e(  9 -  9) =    125.47439  eV     1   --> B_1  G_3 D_2   
     e( 10 - 10) =    140.44248  eV     1   --> A_1  G_1 D_1   
     e( 11 - 11) =    148.62445  eV     1   --> B_2  G_4 D_2'  
     e( 12 - 12) =    163.59912  eV     1   --> A_1  G_1 D_1   
     e( 13 - 14) =    163.62654  eV     2   --> E    G_5 D_5   

 **************************************************************************

 **************************************************************************

                    xk=(   0.00000,   0.33333,   0.00000  )

     Band symmetry, C_4v (4mm)  point group:

     e(  1 -  1) =      9.82312  eV     1   --> A_1  G_1 D_1   
     e(  2 -  2) =     67.46438  eV     1   --> A_1  G_1 D_1   
     e(  3 -  4) =     68.22860  eV     2   --> E    G_5 D_5   
     e(  5 -  5) =     96.86528  eV     1   --> B_2  G_4 D_2'  
     e(  6 -  6) =    110.92502  eV     1   --> A_1  G_1 D_1   
     e(  7 -  8) =    115.34007  eV     2   --> E    G_5 D_5   
     e(  9 -  9) =    126.02989  eV     1   --> B_1  G_3 D_2   
     e( 10 - 10) =    142.00891  eV     1   --> A_1  G_1 D_1   
     e( 11 - 11) =    151.03566  eV     1   --> B_2  G_4 D_2'  
     e( 12 - 12) =    164.09648  eV     1   --> A_1  G_1 D_1   
     e( 13 - 14) =    164.75126  eV     2   --> E    G_5 D_5   

 **************************************************************************

 **************************************************************************

                    xk=(   0.00000,   0.36667,   0.00000  )

     Band symmetry, C_4v (4mm)  point group:

     e(  1 -  1) =     10.45751  eV     1   --> A_1  G_1 D_1   
     e(  2 -  2) =     66.20986  eV     1   --> A_1  G_1 D_1   
     e(  3 -  4) =     67.46739  eV     2   --> E    G_5 D_5   
     e(  5 -  5) =     95.76742  eV     1   --> B_2  G_4 D_2'  
     e(  6 -  6) =    108.87421  eV     1   --> A_1  G_1 D_1   
     e(  7 -  8) =    116.85834  eV     2   --> E    G_5 D_5   
     e(  9 -  9) =    126.63799  eV     1   --> B_1  G_3 D_2   
     e( 10 - 10) =    143.69299  eV     1   --> A_1  G_1 D_1   
     e( 11 - 11) =    153.56593  eV     1   --> B_2  G_4 D_2'  
     e( 12 - 12) =    164.64917  eV     1   --> A_1  G_1 D_1   
     e( 13 - 14) =    165.98796  eV     2   --> E    G_5 D_5   

 **************************************************************************

 **************************************************************************

                    xk=(   0.00000,   0.40000,   0.00000  )

     Band symmetry, C_4v (4mm)  point group:

     e(  1 -  1) =     11.15173  eV     1   --> A_1  G_1 D_1   
     e(  2 -  2) =     64.88448  eV     1   --> A_1  G_1 D_1   
     e(  3 -  4) =     66.71288  eV     2   --> E    G_5 D_5   
     e(  5 -  5) =     94.69905  eV     1   --> B_2  G_4 D_2'  
     e(  6 -  6) =    106.88725  eV     1   --> A_1  G_1 D_1   
     e(  7 -  8) =    118.44219  eV     2   --> E    G_5 D_5   
     e(  9 -  9) =    127.29658  eV     1   --> B_1  G_3 D_2   
     e( 10 - 10) =    145.47636  eV     1   --> A_1  G_1 D_1   
     e( 11 - 11) =    156.20589  eV     1   --> B_2  G_4 D_2'  
     e( 12 - 12) =    165.26456  eV     1   --> A_1  G_1 D_1   
     e( 13 - 14) =    167.33334  eV     2   --> E    G_5 D_5   

 **************************************************************************

 **************************************************************************

                    xk=(   0.00000,   0.43333,   0.00000  )

     Band symmetry, C_4v (4mm)  point group:

     e(  1 -  1) =     11.90479  eV     1   --> A_1  G_1 D_1   
     e(  2 -  2) =     63.49561  eV     1   --> A_1  G_1 D_1   
     e(  3 -  4) =     65.97246  eV     2   --> E    G_5 D_5   
     e(  5 -  5) =     93.66731  eV     1   --> B_2  G_4 D_2'  
     e(  6 -  6) =    104.97920  eV     1   --> A_1  G_1 D_1   
     e(  7 -  8) =    120.08240  eV     2   --> E    G_5 D_5   
     e(  9 -  9) =    128.00320  eV     1   --> B_1  G_3 D_2   
     e( 10 - 10) =    147.34023  eV     1   --> A_1  G_1 D_1   
     e( 11 - 11) =    158.94801  eV     1   --> B_2  G_4 D_2'  
     e( 12 - 12) =    165.94997  eV     1   --> A_1  G_1 D_1   
     e( 13 - 14) =    168.78214  eV     2   --> E    G_5 D_5   

 **************************************************************************

 **************************************************************************

                    xk=(   0.00000,   0.46667,   0.00000  )

     Band symmetry, C_4v (4mm)  point group:

     e(  1 -  1) =     12.64274  eV     1   --> A_1  G_1 D_1   
     e(  2 -  2) =     62.01241  eV     1   --> A_1  G_1 D_1   
     e(  3 -  4) =     65.25239  eV     2   --> E    G_5 D_5   
     e(  5 -  5) =     92.67789  eV     1   --> B_2  G_4 D_2'  
     e(  6 -  6) =    102.20035  eV     1   --> A_1  G_1 D_1   
     e(  7 -  8) =    121.77078  eV     2   --> E    G_5 D_5   
     e(  9 -  9) =    128.75493  eV     1   --> B_1  G_3 D_2   
     e( 10 - 10) =    149.25453  eV     1   --> A_1  G_1 D_1   
     e( 11 - 11) =    161.78612  eV     1   --> B_2  G_4 D_2'  
     e( 12 - 12) =    166.51192  eV     1   --> A_1  G_1 D_1   
     e( 13 - 14) =    170.32612  eV     2   --> E    G_5 D_5   

 **************************************************************************

 **************************************************************************

                    xk=(   0.00000,   0.50000,   0.00000  )

     Band symmetry, C_4v (4mm)  point group:

     e(  1 -  1) =     13.50424  eV     1   --> A_1  G_1 D_1   
     e(  2 -  2) =     60.51181  eV     1   --> A_1  G_1 D_1   
     e(  3 -  4) =     64.55796  eV     2   --> E    G_5 D_5   
     e(  5 -  5) =     91.73536  eV     1   --> B_2  G_4 D_2'  
     e(  6 -  6) =    100.46182  eV     1   --> A_1  G_1 D_1   
     e(  7 -  8) =    123.50006  eV     2   --> E    G_5 D_5   
     e(  9 -  9) =    129.54833  eV     1   --> B_1  G_3 D_2   
     e( 10 - 10) =    151.21616  eV     1   --> A_1  G_1 D_1   
     e( 11 - 11) =    164.71512  eV     1   --> B_2  G_4 D_2'  
     e( 12 - 12) =    167.33205  eV     1   --> A_1  G_1 D_1   
     e( 13 - 14) =    171.95213  eV     2   --> E    G_5 D_5   

 **************************************************************************

 **************************************************************************

                    xk=(   0.00000,   0.53333,   0.00000  )

     Band symmetry, C_4v (4mm)  point group:

     e(  1 -  1) =     14.42005  eV     1   --> A_1  G_1 D_1   
     e(  2 -  2) =     58.96834  eV     1   --> A_1  G_1 D_1   
     e(  3 -  4) =     63.89363  eV     2   --> E    G_5 D_5   
     e(  5 -  5) =     90.84341  eV     1   --> B_2  G_4 D_2'  
     e(  6 -  6) =     98.82972  eV     1   --> A_1  G_1 D_1   
     e(  7 -  8) =    125.26359  eV     2   --> E    G_5 D_5   
     e(  9 -  9) =    130.37935  eV     1   --> B_1  G_3 D_2   
     e( 10 - 10) =    153.18769  eV     1   --> A_1  G_1 D_1   
     e( 11 - 11) =    167.73069  eV     1   --> B_2  G_4 D_2'  
     e( 12 - 12) =    168.25285  eV     1   --> A_1  G_1 D_1   
     e( 13 - 14) =    173.63886  eV     2   --> E    G_5 D_5   

 **************************************************************************

 **************************************************************************

                    xk=(   0.00000,   0.56667,   0.00000  )

     Band symmetry, C_4v (4mm)  point group:

     e(  1 -  1) =     15.38811  eV     1   --> A_1  G_1 D_1   
     e(  2 -  2) =     57.38945  eV     1   --> A_1  G_1 D_1   
     e(  3 -  4) =     63.26317  eV     2   --> E    G_5 D_5   
     e(  5 -  5) =     90.00503  eV     1   --> B_2  G_4 D_2'  
     e(  6 -  6) =     97.30905  eV     1   --> A_1  G_1 D_1   
     e(  7 -  8) =    127.05520  eV     2   --> E    G_5 D_5   
     e(  9 -  9) =    131.24319  eV     1   --> B_1  G_3 D_2   
     e( 10 - 10) =    155.13748  eV     1   --> A_1  G_1 D_1   
     e( 11 - 11) =    169.29203  eV     1   --> A_1  G_1 D_1   
     e( 12 - 12) =    170.82909  eV     1   --> B_2  G_4 D_2'  
     e( 13 - 14) =    175.35064  eV     2   --> E    G_5 D_5   

 **************************************************************************

 **************************************************************************

                    xk=(   0.00000,   0.60000,   0.00000  )

     Band symmetry, C_4v (4mm)  point group:

     e(  1 -  1) =     16.40585  eV     1   --> A_1  G_1 D_1   
     e(  2 -  2) =     55.78306  eV     1   --> A_1  G_1 D_1   
     e(  3 -  4) =     62.66977  eV     2   --> E    G_5 D_5   
     e(  5 -  5) =     89.22269  eV     1   --> B_2  G_4 D_2'  
     e(  6 -  6) =     95.90329  eV     1   --> A_1  G_1 D_1   
     e(  7 -  8) =    128.86887  eV     2   --> E    G_5 D_5   
     e(  9 -  9) =    132.13424  eV     1   --> B_1  G_3 D_2   
     e( 10 - 10) =    157.02884  eV     1   --> A_1  G_1 D_1   
     e( 11 - 11) =    170.47122  eV     1   --> A_1  G_1 D_1   
     e( 12 - 12) =    174.00699  eV     1   --> B_2  G_4 D_2'  
     e( 13 - 14) =    177.02570  eV     2   --> E    G_5 D_5   

 **************************************************************************

 **************************************************************************

                    xk=(   0.00000,   0.63333,   0.00000  )

     Band symmetry, C_4v (4mm)  point group:

     e(  1 -  1) =     17.47006  eV     1   --> A_1  G_1 D_1   
     e(  2 -  2) =     54.15772  eV     1   --> A_1  G_1 D_1   
     e(  3 -  4) =     62.11613  eV     2   --> E    G_5 D_5   
     e(  5 -  5) =     88.49839  eV     1   --> B_2  G_4 D_2'  
     e(  6 -  6) =     94.61463  eV     1   --> A_1  G_1 D_1   
     e(  7 -  8) =    130.69842  eV     2   --> E    G_5 D_5   
     e(  9 -  9) =    133.04586  eV     1   --> B_1  G_3 D_2   
     e( 10 - 10) =    158.82186  eV     1   --> A_1  G_1 D_1   
     e( 11 - 11) =    171.81384  eV     1   --> A_1  G_1 D_1   
     e( 12 - 12) =    177.26129  eV     1   --> B_2  G_4 D_2'  
     e( 13 - 14) =    178.55516  eV     2   --> E    G_5 D_5   

 **************************************************************************

 **************************************************************************

                    xk=(   0.00000,   0.66667,   0.00000  )

     Band symmetry, C_4v (4mm)  point group:

     e(  1 -  1) =     19.04883  eV     1   --> A_1  G_1 D_1   
     e(  2 -  2) =     53.10765  eV     1   --> A_1  G_1 D_1   
     e(  3 -  4) =     61.68445  eV     2   --> E    G_5 D_5   
     e(  5 -  5) =     88.28987  eV     1   --> B_2  G_4 D_2'  
     e(  6 -  6) =     93.45885  eV     1   --> A_1  G_1 D_1   
     e(  7 -  8) =    135.67823  eV     2   --> E    G_5 D_5   
     e(  9 -  9) =    138.03816  eV     1   --> B_1  G_3 D_2   
     e( 10 - 10) =    160.50906  eV     1   --> A_1  G_1 D_1   
     e( 11 - 11) =    174.12539  eV     1   --> A_1  G_1 D_1   
     e( 12 - 13) =    180.05162  eV     2   --> E    G_5 D_5   
     e( 14 - 14) =    182.20076  eV     1   --> B_2  G_4 D_2'  

 **************************************************************************

 **************************************************************************

                    xk=(   0.00000,   0.70000,   0.00000  )

     Band symmetry, C_4v (4mm)  point group:

     e(  1 -  1) =     20.19515  eV     1   --> A_1  G_1 D_1   
     e(  2 -  2) =     51.43145  eV     1   --> A_1  G_1 D_1   
     e(  3 -  4) =     61.21268  eV     2   --> E    G_5 D_5   
     e(  5 -  5) =     87.66370  eV     1   --> B_2  G_4 D_2'  
     e(  6 -  6) =     92.41425  eV     1   --> A_1  G_1 D_1   
     e(  7 -  8) =    137.56480  eV     2   --> E    G_5 D_5   
     e(  9 -  9) =    138.84687  eV     1   --> B_1  G_3 D_2   
     e( 10 - 10) =    161.97067  eV     1   --> A_1  G_1 D_1   
     e( 11 - 11) =    175.83826  eV     1   --> A_1  G_1 D_1   
     e( 12 - 13) =    180.66259  eV     2   --> E    G_5 D_5   
     e( 14 - 14) =    185.63345  eV     1   --> B_2  G_4 D_2'  

 **************************************************************************

 **************************************************************************

                    xk=(   0.00000,   0.73333,   0.00000  )

     Band symmetry, C_4v (4mm)  point group:

     e(  1 -  1) =     21.37357  eV     1   --> A_1  G_1 D_1   
     e(  2 -  2) =     49.76554  eV     1   --> A_1  G_1 D_1   
     e(  3 -  4) =     60.78711  eV     2   --> E    G_5 D_5   
     e(  5 -  5) =     87.10128  eV     1   --> B_2  G_4 D_2'  
     e(  6 -  6) =     91.48823  eV     1   --> A_1  G_1 D_1   
     e(  7 -  8) =    139.43944  eV     2   --> E    G_5 D_5   
     e(  9 -  9) =    139.64100  eV     1   --> B_1  G_3 D_2   
     e( 10 - 10) =    163.27463  eV     1   --> A_1  G_1 D_1   
     e( 11 - 11) =    177.71387  eV     1   --> A_1  G_1 D_1   
     e( 12 - 13) =    180.49813  eV     2   --> E    G_5 D_5   
     e( 14 - 14) =    189.13429  eV     1   --> B_2  G_4 D_2'  

 **************************************************************************

 **************************************************************************

                    xk=(   0.00000,   0.76667,   0.00000  )

     Band symmetry, C_4v (4mm)  point group:

     e(  1 -  1) =     22.57451  eV     1   --> A_1  G_1 D_1   
     e(  2 -  2) =     48.12466  eV     1   --> A_1  G_1 D_1   
     e(  3 -  4) =     60.40899  eV     2   --> E    G_5 D_5   
     e(  5 -  5) =     86.60341  eV     1   --> B_2  G_4 D_2'  
     e(  6 -  6) =     90.67961  eV     1   --> A_1  G_1 D_1   
     e(  7 -  7) =    140.40678  eV     1   --> B_1  G_3 D_2   
     e(  8 -  9) =    141.28897  eV     2   --> E    G_5 D_5   
     e( 10 - 10) =    164.41470  eV     1   --> A_1  G_1 D_1   
     e( 11 - 12) =    179.62354  eV     2   --> E    G_5 D_5   
     e( 13 - 13) =    179.72796  eV     1   --> A_1  G_1 D_1   
     e( 14 - 14) =    192.69999  eV     1   --> B_2  G_4 D_2'  

 **************************************************************************

 **************************************************************************

                    xk=(   0.00000,   0.80000,   0.00000  )

     Band symmetry, C_4v (4mm)  point group:

     e(  1 -  1) =     23.78411  eV     1   --> A_1  G_1 D_1   
     e(  2 -  2) =     46.52744  eV     1   --> A_1  G_1 D_1   
     e(  3 -  4) =     60.07939  eV     2   --> E    G_5 D_5   
     e(  5 -  5) =     86.17074  eV     1   --> B_2  G_4 D_2'  
     e(  6 -  6) =     89.98697  eV     1   --> A_1  G_1 D_1   
     e(  7 -  7) =    141.12875  eV     1   --> B_1  G_3 D_2   
     e(  8 -  9) =    143.09510  eV     2   --> E    G_5 D_5   
     e( 10 - 10) =    165.39189  eV     1   --> A_1  G_1 D_1   
     e( 11 - 12) =    178.29649  eV     2   --> E    G_5 D_5   
     e( 13 - 13) =    181.84114  eV     1   --> A_1  G_1 D_1   
     e( 14 - 14) =    192.39241  eV     1   --> B_1  G_3 D_2   

 **************************************************************************

 **************************************************************************

                    xk=(   0.00000,   0.83333,   0.00000  )

     Band symmetry, C_4v (4mm)  point group:

     e(  1 -  1) =     24.98154  eV     1   --> A_1  G_1 D_1   
     e(  2 -  2) =     44.99898  eV     1   --> A_1  G_1 D_1   
     e(  3 -  4) =     59.79918  eV     2   --> E    G_5 D_5   
     e(  5 -  5) =     85.80380  eV     1   --> B_2  G_4 D_2'  
     e(  6 -  6) =     89.40881  eV     1   --> A_1  G_1 D_1   
     e(  7 -  7) =    141.79000  eV     1   --> B_1  G_3 D_2   
     e(  8 -  9) =    144.83171  eV     2   --> E    G_5 D_5   
     e( 10 - 10) =    166.21066  eV     1   --> A_1  G_1 D_1   
     e( 11 - 12) =    176.76794  eV     2   --> E    G_5 D_5   
     e( 13 - 13) =    183.99861  eV     1   --> A_1  G_1 D_1   
     e( 14 - 14) =    190.95226  eV     1   --> B_1  G_3 D_2   

 **************************************************************************

 **************************************************************************

                    xk=(   0.00000,   0.86667,   0.00000  )

     Band symmetry, C_4v (4mm)  point group:

     e(  1 -  1) =     26.13443  eV     1   --> A_1  G_1 D_1   
     e(  2 -  2) =     43.57537  eV     1   --> A_1  G_1 D_1   
     e(  3 -  4) =     59.56907  eV     2   --> E    G_5 D_5   
     e(  5 -  5) =     85.50304  eV     1   --> B_2  G_4 D_2'  
     e(  6 -  6) =     88.94369  eV     1   --> A_1  G_1 D_1   
     e(  7 -  7) =    142.37271  eV     1   --> B_1  G_3 D_2   
     e(  8 -  9) =    146.46103  eV     2   --> E    G_5 D_5   
     e( 10 - 10) =    166.87582  eV     1   --> A_1  G_1 D_1   
     e( 11 - 12) =    175.21872  eV     2   --> E    G_5 D_5   
     e( 13 - 13) =    186.12664  eV     1   --> A_1  G_1 D_1   
     e( 14 - 14) =    189.73513  eV     1   --> B_1  G_3 D_2   

 **************************************************************************

 **************************************************************************

                    xk=(   0.00000,   0.90000,   0.00000  )

     Band symmetry, C_4v (4mm)  point group:

     e(  1 -  1) =     27.19158  eV     1   --> A_1  G_1 D_1   
     e(  2 -  2) =     42.31096  eV     1   --> A_1  G_1 D_1   
     e(  3 -  4) =     59.38961  eV     2   --> E    G_5 D_5   
     e(  5 -  5) =     85.26877  eV     1   --> B_2  G_4 D_2'  
     e(  6 -  6) =     88.59028  eV     1   --> A_1  G_1 D_1   
     e(  7 -  7) =    142.85904  eV     1   --> B_1  G_3 D_2   
     e(  8 -  9) =    147.92889  eV     2   --> E    G_5 D_5   
     e( 10 - 10) =    167.39100  eV     1   --> A_1  G_1 D_1   
     e( 11 - 12) =    173.78386  eV     2   --> E    G_5 D_5   
     e( 13 - 13) =    188.12399  eV     1   --> A_1  G_1 D_1   
     e( 14 - 14) =    188.75894  eV     1   --> B_1  G_3 D_2   

 **************************************************************************

 **************************************************************************

                    xk=(   0.00000,   0.93333,   0.00000  )

     Band symmetry, C_4v (4mm)  point group:

     e(  1 -  1) =     28.07365  eV     1   --> A_1  G_1 D_1   
     e(  2 -  2) =     41.28764  eV     1   --> A_1  G_1 D_1   
     e(  3 -  4) =     59.26125  eV     2   --> E    G_5 D_5   
     e(  5 -  5) =     85.10127  eV     1   --> B_2  G_4 D_2'  
     e(  6 -  6) =     88.34742  eV     1   --> A_1  G_1 D_1   
     e(  7 -  7) =    143.23241  eV     1   --> B_1  G_3 D_2   
     e(  8 -  9) =    149.16070  eV     2   --> E    G_5 D_5   
     e( 10 - 10) =    167.75838  eV     1   --> A_1  G_1 D_1   
     e( 11 - 12) =    172.58291  eV     2   --> E    G_5 D_5   
     e( 13 - 13) =    188.04034  eV     1   --> B_1  G_3 D_2   
     e( 14 - 14) =    189.84963  eV     1   --> A_1  G_1 D_1   

 **************************************************************************

 **************************************************************************

                    xk=(   0.00000,   0.96667,   0.00000  )

     Band symmetry, C_4v (4mm)  point group:

     e(  1 -  1) =     28.91288  eV     1   --> A_1  G_1 D_1   
     e(  2 -  2) =     40.76680  eV     1   --> A_1  G_1 D_1   
     e(  3 -  4) =     59.19644  eV     2   --> E    G_5 D_5   
     e(  5 -  5) =     85.00070  eV     1   --> B_2  G_4 D_2'  
     e(  6 -  6) =     89.00612  eV     1   --> A_1  G_1 D_1   
     e(  7 -  7) =    143.86188  eV     1   --> B_1  G_3 D_2   
     e(  8 -  9) =    152.00888  eV     2   --> E    G_5 D_5   
     e( 10 - 10) =    168.24134  eV     1   --> A_1  G_1 D_1   
     e( 11 - 12) =    171.81324  eV     2   --> E    G_5 D_5   
     e( 13 - 13) =    187.80085  eV     1   --> B_1  G_3 D_2   
     e( 14 - 14) =    192.83133  eV     1   --> A_1  G_1 D_1   

 **************************************************************************

 **************************************************************************

                    xk=(   0.00000,   1.00000,   0.00000  )

     point group D_4h(4/mmm)
     there are 10 classes
     the character table:

       E     2C4   C2    2C2'  2C2'' i     2S4   s_h   2s_v  2s_d 
A_1g   1.00  1.00  1.00  1.00  1.00  1.00  1.00  1.00  1.00  1.00
A_2g   1.00  1.00  1.00 -1.00 -1.00  1.00  1.00  1.00 -1.00 -1.00
B_1g   1.00 -1.00  1.00  1.00 -1.00  1.00 -1.00  1.00  1.00 -1.00
B_2g   1.00 -1.00  1.00 -1.00  1.00  1.00 -1.00  1.00 -1.00  1.00
E_g    2.00  0.00 -2.00  0.00  0.00  2.00  0.00 -2.00  0.00  0.00
A_1u   1.00  1.00  1.00  1.00  1.00 -1.00 -1.00 -1.00 -1.00 -1.00
A_2u   1.00  1.00  1.00 -1.00 -1.00 -1.00 -1.00 -1.00  1.00  1.00
B_1u   1.00 -1.00  1.00  1.00 -1.00 -1.00  1.00 -1.00 -1.00  1.00
B_2u   1.00 -1.00  1.00 -1.00  1.00 -1.00  1.00 -1.00  1.00 -1.00
E_u    2.00  0.00 -2.00  0.00  0.00 -2.00  0.00  2.00  0.00  0.00

     the symmetry operations in each class and the name of the first element:

     E        1
                                                                 
     2C4      7    8
                                                                 
     C2       3
                                                                 
     2C2'     2    4
                                                                 
     2C2''    5    6
                                                                 
     i        9
                                                                 
     2S4     15   16
                                                                 
     s_h     11
                                                                 
     2s_v    10   12
                                                                 
     2s_d    13   14
                                                                 

     Band symmetry, D_4h(4/mmm) point group:

     e(  1 -  1) =     29.14153  eV     1   --> A_1g X_1  M_1  
     e(  2 -  2) =     40.50174  eV     1   --> A_2u X_4' M_4' 
     e(  3 -  4) =     59.17060  eV     2   --> E_u  X_5' M_5' 
     e(  5 -  5) =     84.96716  eV     1   --> B_2g X_3  M_3  
     e(  6 -  6) =     88.95192  eV     1   --> A_1g X_1  M_1  
     e(  7 -  7) =    143.93110  eV     1   --> B_1g X_2  M_2  
     e(  8 -  9) =    152.26175  eV     2   --> E_g  X_5  M_5  
     e( 10 - 10) =    168.31382  eV     1   --> A_2u X_4' M_4' 
     e( 11 - 12) =    171.53696  eV     2   --> E_u  X_5' M_5' 
     e( 13 - 13) =    187.65886  eV     1   --> B_2u X_3' M_3' 
     e( 14 - 14) =    193.25273  eV     1   --> A_1g X_1  M_1  

 **************************************************************************

 **************************************************************************

                    xk=(   0.00833,   1.00000,   0.00833  )

     point group C_2v (mm2) 
     there are  4 classes
     the character table:

       E     C2    s_v   s_v' 
A_1    1.00  1.00  1.00  1.00
A_2    1.00  1.00 -1.00 -1.00
B_1    1.00 -1.00  1.00 -1.00
B_2    1.00 -1.00 -1.00  1.00

     the symmetry operations in each class and the name of the first element:

     E        1
                                                                 
     C2       2
                                                                 
     s_v      3
                                                                 
     s_v'     4
                                                                 

     Band symmetry, C_2v (mm2)  point group:

     e(  1 -  1) =     29.14285  eV     1   --> A_1  D_1  S_1  
     e(  2 -  2) =     40.50551  eV     1   --> B_2  D_4  S_4  
     e(  3 -  3) =     59.14550  eV     1   --> A_1  D_1  S_1  
     e(  4 -  4) =     59.17356  eV     1   --> B_1  D_3  S_3  
     e(  5 -  5) =     84.98945  eV     1   --> A_1  D_1  S_1  
     e(  6 -  6) =     88.96783  eV     1   --> A_1  D_1  S_1  
     e(  7 -  7) =    143.90335  eV     1   --> B_1  D_3  S_3  
     e(  8 -  8) =    152.21354  eV     1   --> B_2  D_4  S_4  
     e(  9 -  9) =    152.24468  eV     1   --> A_2  D_2  S_2  
     e( 10 - 10) =    168.36615  eV     1   --> B_2  D_4  S_4  
     e( 11 - 11) =    171.51889  eV     1   --> A_1  D_1  S_1  
     e( 12 - 12) =    171.57222  eV     1   --> B_1  D_3  S_3  
     e( 13 - 13) =    187.67235  eV     1   --> A_2  D_2  S_2  
     e( 14 - 14) =    193.24554  eV     1   --> A_1  D_1  S_1  

 **************************************************************************

 **************************************************************************

                    xk=(   0.01667,   1.00000,   0.01667  )

     Band symmetry, C_2v (mm2)  point group:

     e(  1 -  1) =     29.14681  eV     1   --> A_1  D_1  S_1  
     e(  2 -  2) =     40.51681  eV     1   --> B_2  D_4  S_4  
     e(  3 -  3) =     59.07064  eV     1   --> A_1  D_1  S_1  
     e(  4 -  4) =     59.18243  eV     1   --> B_1  D_3  S_3  
     e(  5 -  5) =     85.05542  eV     1   --> A_1  D_1  S_1  
     e(  6 -  6) =     89.01605  eV     1   --> A_1  D_1  S_1  
     e(  7 -  7) =    143.82055  eV     1   --> B_1  D_3  S_3  
     e(  8 -  8) =    152.07081  eV     1   --> B_2  D_4  S_4  
     e(  9 -  9) =    152.19357  eV     1   --> A_2  D_2  S_2  
     e( 10 - 10) =    168.52120  eV     1   --> B_2  D_4  S_4  
     e( 11 - 11) =    171.46489  eV     1   --> A_1  D_1  S_1  
     e( 12 - 12) =    171.67754  eV     1   --> B_1  D_3  S_3  
     e( 13 - 13) =    187.71271  eV     1   --> A_2  D_2  S_2  
     e( 14 - 14) =    193.22362  eV     1   --> A_1  D_1  S_1  

 **************************************************************************

 **************************************************************************

                    xk=(   0.02500,   1.00000,   0.02500  )

     Band symmetry, C_2v (mm2)  point group:

     e(  1 -  1) =     29.15335  eV     1   --> A_1  D_1  S_1  
     e(  2 -  2) =     40.53565  eV     1   --> B_2  D_4  S_4  
     e(  3 -  3) =     58.94727  eV     1   --> A_1  D_1  S_1  
     e(  4 -  4) =     59.19722  eV     1   --> B_1  D_3  S_3  
     e(  5 -  5) =     85.16234  eV     1   --> A_1  D_1  S_1  
     e(  6 -  6) =     89.09807  eV     1   --> A_1  D_1  S_1  
     e(  7 -  7) =    143.68400  eV     1   --> B_1  D_3  S_3  
     e(  8 -  8) =    151.83892  eV     1   --> B_2  D_4  S_4  
     e(  9 -  9) =    152.10877  eV     1   --> A_2  D_2  S_2  
     e( 10 - 10) =    168.77355  eV     1   --> B_2  D_4  S_4  
     e( 11 - 11) =    171.37548  eV     1   --> A_1  D_1  S_1  
     e( 12 - 12) =    171.85159  eV     1   --> B_1  D_3  S_3  
     e( 13 - 13) =    187.77963  eV     1   --> A_2  D_2  S_2  
     e( 14 - 14) =    193.18600  eV     1   --> A_1  D_1  S_1  

 **************************************************************************

 **************************************************************************

                    xk=(   0.03333,   1.00000,   0.03333  )

     Band symmetry, C_2v (mm2)  point group:

     e(  1 -  1) =     29.16239  eV     1   --> A_1  D_1  S_1  
     e(  2 -  2) =     40.56201  eV     1   --> B_2  D_4  S_4  
     e(  3 -  3) =     58.77740  eV     1   --> A_1  D_1  S_1  
     e(  4 -  4) =     59.21792  eV     1   --> B_1  D_3  S_3  
     e(  5 -  5) =     85.30582  eV     1   --> A_1  D_1  S_1  
     e(  6 -  6) =     89.21631  eV     1   --> A_1  D_1  S_1  
     e(  7 -  7) =    143.49580  eV     1   --> B_1  D_3  S_3  
     e(  8 -  8) =    151.52583  eV     1   --> B_2  D_4  S_4  
     e(  9 -  9) =    151.99081  eV     1   --> A_2  D_2  S_2  
     e( 10 - 10) =    169.11516  eV     1   --> B_2  D_4  S_4  
     e( 11 - 11) =    171.25154  eV     1   --> A_1  D_1  S_1  
     e( 12 - 12) =    172.09223  eV     1   --> B_1  D_3  S_3  
     e( 13 - 13) =    187.87260  eV     1   --> A_2  D_2  S_2  
     e( 14 - 14) =    193.13110  eV     1   --> A_1  D_1  S_1  

 **************************************************************************

 **************************************************************************

                    xk=(   0.04167,   1.00000,   0.04167  )

     Band symmetry, C_2v (mm2)  point group:

     e(  1 -  1) =     29.17384  eV     1   --> A_1  D_1  S_1  
     e(  2 -  2) =     40.59591  eV     1   --> B_2  D_4  S_4  
     e(  3 -  3) =     58.56367  eV     1   --> A_1  D_1  S_1  
     e(  4 -  4) =     59.24451  eV     1   --> B_1  D_3  S_3  
     e(  5 -  5) =     85.48000  eV     1   --> A_1  D_1  S_1  
     e(  6 -  6) =     89.37408  eV     1   --> A_1  D_1  S_1  
     e(  7 -  7) =    143.25869  eV     1   --> B_1  D_3  S_3  
     e(  8 -  8) =    151.14096  eV     1   --> B_2  D_4  S_4  
     e(  9 -  9) =    151.84045  eV     1   --> A_2  D_2  S_2  
     e( 10 - 10) =    169.53644  eV     1   --> B_2  D_4  S_4  
     e( 11 - 11) =    171.09426  eV     1   --> A_1  D_1  S_1  
     e( 12 - 12) =    172.39668  eV     1   --> B_1  D_3  S_3  
     e( 13 - 13) =    187.99094  eV     1   --> A_2  D_2  S_2  
     e( 14 - 14) =    193.05689  eV     1   --> A_1  D_1  S_1  

 **************************************************************************

 **************************************************************************

                    xk=(   0.05000,   1.00000,   0.05000  )

     Band symmetry, C_2v (mm2)  point group:

     e(  1 -  1) =     29.18754  eV     1   --> A_1  D_1  S_1  
     e(  2 -  2) =     40.63733  eV     1   --> B_2  D_4  S_4  
     e(  3 -  3) =     58.30922  eV     1   --> A_1  D_1  S_1  
     e(  4 -  4) =     59.27700  eV     1   --> B_1  D_3  S_3  
     e(  5 -  5) =     85.67787  eV     1   --> A_1  D_1  S_1  
     e(  6 -  6) =     89.57527  eV     1   --> A_1  D_1  S_1  
     e(  7 -  7) =    142.97591  eV     1   --> B_1  D_3  S_3  
     e(  8 -  8) =    150.69421  eV     1   --> B_2  D_4  S_4  
     e(  9 -  9) =    151.65862  eV     1   --> A_2  D_2  S_2  
     e( 10 - 10) =    170.02732  eV     1   --> B_2  D_4  S_4  
     e( 11 - 11) =    170.90510  eV     1   --> A_1  D_1  S_1  
     e( 12 - 12) =    172.76162  eV     1   --> B_1  D_3  S_3  
     e( 13 - 13) =    188.13380  eV     1   --> A_2  D_2  S_2  
     e( 14 - 14) =    192.96100  eV     1   --> A_1  D_1  S_1  

 **************************************************************************

 **************************************************************************

                    xk=(   0.05833,   1.00000,   0.05833  )

     Band symmetry, C_2v (mm2)  point group:

     e(  1 -  1) =     29.20333  eV     1   --> A_1  D_1  S_1  
     e(  2 -  2) =     40.68627  eV     1   --> B_2  D_4  S_4  
     e(  3 -  3) =     58.01755  eV     1   --> A_1  D_1  S_1  
     e(  4 -  4) =     59.31535  eV     1   --> B_1  D_3  S_3  
     e(  5 -  5) =     85.89191  eV     1   --> A_1  D_1  S_1  
     e(  6 -  6) =     89.82403  eV     1   --> A_1  D_1  S_1  
     e(  7 -  7) =    142.65104  eV     1   --> B_1  D_3  S_3  
     e(  8 -  8) =    150.19513  eV     1   --> B_2  D_4  S_4  
     e(  9 -  9) =    151.44640  eV     1   --> A_2  D_2  S_2  
     e( 10 - 10) =    170.57801  eV     1   --> B_2  D_4  S_4  
     e( 11 - 11) =    170.68570  eV     1   --> A_1  D_1  S_1  
     e( 12 - 12) =    173.18338  eV     1   --> B_1  D_3  S_3  
     e( 13 - 13) =    188.30020  eV     1   --> A_2  D_2  S_2  
     e( 14 - 14) =    192.84093  eV     1   --> A_1  D_1  S_1  

 **************************************************************************

 **************************************************************************

                    xk=(   0.06667,   1.00000,   0.06667  )

     Band symmetry, C_2v (mm2)  point group:

     e(  1 -  1) =     29.22098  eV     1   --> A_1  D_1  S_1  
     e(  2 -  2) =     40.74272  eV     1   --> B_2  D_4  S_4  
     e(  3 -  3) =     57.69239  eV     1   --> A_1  D_1  S_1  
     e(  4 -  4) =     59.35956  eV     1   --> B_1  D_3  S_3  
     e(  5 -  5) =     86.11469  eV     1   --> A_1  D_1  S_1  
     e(  6 -  6) =     90.12418  eV     1   --> A_1  D_1  S_1  
     e(  7 -  7) =    142.28783  eV     1   --> B_1  D_3  S_3  
     e(  8 -  8) =    149.65247  eV     1   --> B_2  D_4  S_4  
     e(  9 -  9) =    151.20501  eV     1   --> A_2  D_2  S_2  
     e( 10 - 10) =    170.43793  eV     1   --> A_1  D_1  S_1  
     e( 11 - 11) =    171.17947  eV     1   --> B_2  D_4  S_4  
     e( 12 - 12) =    173.65811  eV     1   --> B_1  D_3  S_3  
     e( 13 - 13) =    188.48903  eV     1   --> A_2  D_2  S_2  
     e( 14 - 14) =    192.69421  eV     1   --> A_1  D_1  S_1  

 **************************************************************************

 **************************************************************************

                    xk=(   0.07500,   1.00000,   0.07500  )

     Band symmetry, C_2v (mm2)  point group:

     e(  1 -  1) =     29.24027  eV     1   --> A_1  D_1  S_1  
     e(  2 -  2) =     40.80669  eV     1   --> B_2  D_4  S_4  
     e(  3 -  3) =     57.33754  eV     1   --> A_1  D_1  S_1  
     e(  4 -  4) =     59.40960  eV     1   --> B_1  D_3  S_3  
     e(  5 -  5) =     86.33973  eV     1   --> A_1  D_1  S_1  
     e(  6 -  6) =     90.47851  eV     1   --> A_1  D_1  S_1  
     e(  7 -  7) =    141.89011  eV     1   --> B_1  D_3  S_3  
     e(  8 -  8) =    149.07394  eV     1   --> B_2  D_4  S_4  
     e(  9 -  9) =    150.93577  eV     1   --> A_2  D_2  S_2  
     e( 10 - 10) =    170.16375  eV     1   --> A_1  D_1  S_1  
     e( 11 - 11) =    171.82364  eV     1   --> B_2  D_4  S_4  
     e( 12 - 12) =    174.18187  eV     1   --> B_1  D_3  S_3  
     e( 13 - 13) =    188.69912  eV     1   --> A_2  D_2  S_2  
     e( 14 - 14) =    192.51860  eV     1   --> A_1  D_1  S_1  

 **************************************************************************

 **************************************************************************

                    xk=(   0.08333,   1.00000,   0.08333  )

     Band symmetry, C_2v (mm2)  point group:

     e(  1 -  1) =     28.95894  eV     1   --> A_1  D_1  S_1  
     e(  2 -  2) =     40.78543  eV     1   --> B_2  D_4  S_4  
     e(  3 -  3) =     56.95676  eV     1   --> A_1  D_1  S_1  
     e(  4 -  4) =     59.45244  eV     1   --> B_1  D_3  S_3  
     e(  5 -  5) =     86.46392  eV     1   --> A_1  D_1  S_1  
     e(  6 -  6) =     90.07483  eV     1   --> A_1  D_1  S_1  
     e(  7 -  7) =    141.04286  eV     1   --> B_1  D_3  S_3  
     e(  8 -  8) =    146.65762  eV     1   --> B_2  D_4  S_4  
     e(  9 -  9) =    148.68005  eV     1   --> A_2  D_2  S_2  
     e( 10 - 10) =    169.84066  eV     1   --> A_1  D_1  S_1  
     e( 11 - 11) =    172.49002  eV     1   --> B_2  D_4  S_4  
     e( 12 - 12) =    174.67471  eV     1   --> B_1  D_3  S_3  
     e( 13 - 13) =    188.92911  eV     1   --> A_2  D_2  S_2  
     e( 14 - 14) =    189.93025  eV     1   --> A_1  D_1  S_1  

 **************************************************************************

 **************************************************************************

                    xk=(   0.09167,   1.00000,   0.09167  )

     Band symmetry, C_2v (mm2)  point group:

     e(  1 -  1) =     28.97728  eV     1   --> A_1  D_1  S_1  
     e(  2 -  2) =     40.86405  eV     1   --> B_2  D_4  S_4  
     e(  3 -  3) =     56.55395  eV     1   --> A_1  D_1  S_1  
     e(  4 -  4) =     59.51389  eV     1   --> B_1  D_3  S_3  
     e(  5 -  5) =     86.64808  eV     1   --> A_1  D_1  S_1  
     e(  6 -  6) =     90.55972  eV     1   --> A_1  D_1  S_1  
     e(  7 -  7) =    140.58564  eV     1   --> B_1  D_3  S_3  
     e(  8 -  8) =    146.04326  eV     1   --> B_2  D_4  S_4  
     e(  9 -  9) =    148.34911  eV     1   --> A_2  D_2  S_2  
     e( 10 - 10) =    169.52856  eV     1   --> A_1  D_1  S_1  
     e( 11 - 11) =    173.18975  eV     1   --> B_2  D_4  S_4  
     e( 12 - 12) =    175.29125  eV     1   --> B_1  D_3  S_3  
     e( 13 - 13) =    189.17692  eV     1   --> A_2  D_2  S_2  
     e( 14 - 14) =    189.65481  eV     1   --> A_1  D_1  S_1  

 **************************************************************************

 **************************************************************************

                    xk=(   0.10000,   1.00000,   0.10000  )

     Band symmetry, C_2v (mm2)  point group:

     e(  1 -  1) =     28.99617  eV     1   --> A_1  D_1  S_1  
     e(  2 -  2) =     40.95014  eV     1   --> B_2  D_4  S_4  
     e(  3 -  3) =     56.13251  eV     1   --> A_1  D_1  S_1  
     e(  4 -  4) =     59.58109  eV     1   --> B_1  D_3  S_3  
     e(  5 -  5) =     86.82400  eV     1   --> A_1  D_1  S_1  
     e(  6 -  6) =     91.09871  eV     1   --> A_1  D_1  S_1  
     e(  7 -  7) =    140.10548  eV     1   --> B_1  D_3  S_3  
     e(  8 -  8) =    145.41123  eV     1   --> B_2  D_4  S_4  
     e(  9 -  9) =    147.99716  eV     1   --> A_2  D_2  S_2  
     e( 10 - 10) =    169.19424  eV     1   --> A_1  D_1  S_1  
     e( 11 - 11) =    173.91230  eV     1   --> B_2  D_4  S_4  
     e( 12 - 12) =    175.94461  eV     1   --> B_1  D_3  S_3  
     e( 13 - 13) =    189.35621  eV     1   --> A_1  D_1  S_1  
     e( 14 - 14) =    189.43822  eV     1   --> A_2  D_2  S_2  

 **************************************************************************

 **************************************************************************

                    xk=(   0.10833,   1.00000,   0.10833  )

     Band symmetry, C_2v (mm2)  point group:

     e(  1 -  1) =     29.01521  eV     1   --> A_1  D_1  S_1  
     e(  2 -  2) =     41.04368  eV     1   --> B_2  D_4  S_4  
     e(  3 -  3) =     55.69594  eV     1   --> A_1  D_1  S_1  
     e(  4 -  4) =     59.65402  eV     1   --> B_1  D_3  S_3  
     e(  5 -  5) =     86.99339  eV     1   --> A_1  D_1  S_1  
     e(  6 -  6) =     91.68683  eV     1   --> A_1  D_1  S_1  
     e(  7 -  7) =    139.60546  eV     1   --> B_1  D_3  S_3  
     e(  8 -  8) =    144.76502  eV     1   --> B_2  D_4  S_4  
     e(  9 -  9) =    147.62552  eV     1   --> A_2  D_2  S_2  
     e( 10 - 10) =    168.83988  eV     1   --> A_1  D_1  S_1  
[...]
     e(  3 -  3) =     59.74576  eV     1   --> B_2  D_4  S_4  
     e(  4 -  4) =     70.93161  eV     1   --> B_1  D_3  S_3  
     e(  5 -  5) =    106.33509  eV     1   --> A_1  D_1  S_1  
     e(  6 -  6) =    108.24484  eV     1   --> B_2  D_4  S_4  
     e(  7 -  7) =    113.07705  eV     1   --> A_2  D_2  S_2  
     e(  8 -  8) =    115.14490  eV     1   --> B_1  D_3  S_3  
     e(  9 -  9) =    126.58377  eV     1   --> A_1  D_1  S_1  
     e( 10 - 10) =    151.35363  eV     1   --> A_1  D_1  S_1  
     e( 11 - 11) =    160.73377  eV     1   --> B_2  D_4  S_4  
     e( 12 - 12) =    162.76669  eV     1   --> A_1  D_1  S_1  
     e( 13 - 13) =    180.79220  eV     1   --> B_2  D_4  S_4  
     e( 14 - 14) =    187.64331  eV     1   --> A_1  D_1  S_1  

 **************************************************************************

 **************************************************************************

                    xk=(   0.35000,   0.35000,   0.00000  )

     Band symmetry, C_2v (mm2)  point group:

     e(  1 -  1) =     13.29306  eV     1   --> A_1  D_1  S_1  
     e(  2 -  2) =     56.98351  eV     1   --> A_1  D_1  S_1  
     e(  3 -  3) =     61.07818  eV     1   --> B_2  D_4  S_4  
     e(  4 -  4) =     71.26752  eV     1   --> B_1  D_3  S_3  
     e(  5 -  5) =    106.34233  eV     1   --> B_2  D_4  S_4  
     e(  6 -  6) =    106.68058  eV     1   --> A_1  D_1  S_1  
     e(  7 -  7) =    111.25163  eV     1   --> A_2  D_2  S_2  
     e(  8 -  8) =    113.69707  eV     1   --> B_1  D_3  S_3  
     e(  9 -  9) =    126.01910  eV     1   --> A_1  D_1  S_1  
     e( 10 - 10) =    148.74337  eV     1   --> A_1  D_1  S_1  
     e( 11 - 11) =    157.97945  eV     1   --> B_2  D_4  S_4  
     e( 12 - 12) =    159.77458  eV     1   --> A_1  D_1  S_1  
     e( 13 - 13) =    177.39798  eV     1   --> B_2  D_4  S_4  
     e( 14 - 14) =    191.39378  eV     1   --> A_1  D_1  S_1  

 **************************************************************************

 **************************************************************************

                    xk=(   0.32500,   0.32500,   0.00000  )

     Band symmetry, C_2v (mm2)  point group:

     e(  1 -  1) =     12.40256  eV     1   --> A_1  D_1  S_1  
     e(  2 -  2) =     58.45346  eV     1   --> A_1  D_1  S_1  
     e(  3 -  3) =     62.41539  eV     1   --> B_2  D_4  S_4  
     e(  4 -  4) =     71.65829  eV     1   --> B_1  D_3  S_3  
     e(  5 -  5) =    105.70369  eV     1   --> B_2  D_4  S_4  
     e(  6 -  6) =    107.66640  eV     1   --> A_1  D_1  S_1  
     e(  7 -  7) =    110.28909  eV     1   --> A_2  D_2  S_2  
     e(  8 -  8) =    114.06088  eV     1   --> B_1  D_3  S_3  
     e(  9 -  9) =    125.46157  eV     1   --> A_1  D_1  S_1  
     e( 10 - 10) =    147.09285  eV     1   --> A_1  D_1  S_1  
     e( 11 - 11) =    156.26428  eV     1   --> B_2  D_4  S_4  
     e( 12 - 12) =    158.24118  eV     1   --> A_1  D_1  S_1  
     e( 13 - 13) =    174.45200  eV     1   --> B_2  D_4  S_4  
     e( 14 - 14) =    190.80606  eV     1   --> B_1  D_3  S_3  

 **************************************************************************

 **************************************************************************

                    xk=(   0.30000,   0.30000,   0.00000  )

     Band symmetry, C_2v (mm2)  point group:

     e(  1 -  1) =     11.57053  eV     1   --> A_1  D_1  S_1  
     e(  2 -  2) =     59.96045  eV     1   --> A_1  D_1  S_1  
     e(  3 -  3) =     63.73792  eV     1   --> B_2  D_4  S_4  
     e(  4 -  4) =     71.99970  eV     1   --> B_1  D_3  S_3  
     e(  5 -  5) =    105.17987  eV     1   --> B_2  D_4  S_4  
     e(  6 -  6) =    108.52882  eV     1   --> A_1  D_1  S_1  
     e(  7 -  7) =    109.39472  eV     1   --> A_2  D_2  S_2  
     e(  8 -  8) =    114.58547  eV     1   --> B_1  D_3  S_3  
     e(  9 -  9) =    124.93136  eV     1   --> A_1  D_1  S_1  
     e( 10 - 10) =    145.33496  eV     1   --> A_1  D_1  S_1  
     e( 11 - 11) =    154.48109  eV     1   --> B_2  D_4  S_4  
     e( 12 - 12) =    157.08045  eV     1   --> A_1  D_1  S_1  
     e( 13 - 13) =    171.74386  eV     1   --> B_2  D_4  S_4  
     e( 14 - 14) =    187.36851  eV     1   --> B_1  D_3  S_3  

 **************************************************************************

 **************************************************************************

                    xk=(   0.27500,   0.27500,   0.00000  )

     Band symmetry, C_2v (mm2)  point group:

     e(  1 -  1) =     10.79963  eV     1   --> A_1  D_1  S_1  
     e(  2 -  2) =     61.49363  eV     1   --> A_1  D_1  S_1  
     e(  3 -  3) =     65.03294  eV     1   --> B_2  D_4  S_4  
     e(  4 -  4) =     72.29259  eV     1   --> B_1  D_3  S_3  
     e(  5 -  5) =    104.77540  eV     1   --> B_2  D_4  S_4  
     e(  6 -  6) =    108.56951  eV     1   --> A_2  D_2  S_2  
     e(  7 -  7) =    109.22595  eV     1   --> A_1  D_1  S_1  
     e(  8 -  8) =    115.26311  eV     1   --> B_1  D_3  S_3  
     e(  9 -  9) =    124.46091  eV     1   --> A_1  D_1  S_1  
     e( 10 - 10) =    143.54547  eV     1   --> A_1  D_1  S_1  
     e( 11 - 11) =    152.61464  eV     1   --> B_2  D_4  S_4  
     e( 12 - 12) =    156.25670  eV     1   --> A_1  D_1  S_1  
     e( 13 - 13) =    169.30793  eV     1   --> B_2  D_4  S_4  
     e( 14 - 14) =    183.99150  eV     1   --> B_1  D_3  S_3  

 **************************************************************************

 **************************************************************************

                    xk=(   0.25000,   0.25000,   0.00000  )

     Band symmetry, C_2v (mm2)  point group:

     e(  1 -  1) =     10.09207  eV     1   --> A_1  D_1  S_1  
     e(  2 -  2) =     63.04065  eV     1   --> A_1  D_1  S_1  
     e(  3 -  3) =     66.28639  eV     1   --> B_2  D_4  S_4  
     e(  4 -  4) =     72.53933  eV     1   --> B_1  D_3  S_3  
     e(  5 -  5) =    104.49414  eV     1   --> B_2  D_4  S_4  
     e(  6 -  6) =    107.81438  eV     1   --> A_2  D_2  S_2  
     e(  7 -  7) =    109.71440  eV     1   --> A_1  D_1  S_1  
     e(  8 -  8) =    116.08276  eV     1   --> B_1  D_3  S_3  
     e(  9 -  9) =    124.08059  eV     1   --> A_1  D_1  S_1  
     e( 10 - 10) =    141.80308  eV     1   --> A_1  D_1  S_1  
     e( 11 - 11) =    150.66208  eV     1   --> B_2  D_4  S_4  
     e( 12 - 12) =    155.72832  eV     1   --> A_1  D_1  S_1  
     e( 13 - 13) =    167.16481  eV     1   --> B_2  D_4  S_4  
     e( 14 - 14) =    180.70333  eV     1   --> B_1  D_3  S_3  

 **************************************************************************

 **************************************************************************

                    xk=(   0.22500,   0.22500,   0.00000  )

     Band symmetry, C_2v (mm2)  point group:

     e(  1 -  1) =      9.44966  eV     1   --> A_1  D_1  S_1  
     e(  2 -  2) =     64.58710  eV     1   --> A_1  D_1  S_1  
     e(  3 -  3) =     67.48325  eV     1   --> B_2  D_4  S_4  
     e(  4 -  4) =     72.74351  eV     1   --> B_1  D_3  S_3  
     e(  5 -  5) =    104.33850  eV     1   --> B_2  D_4  S_4  
     e(  6 -  6) =    107.13011  eV     1   --> A_2  D_2  S_2  
     e(  7 -  7) =    109.95768  eV     1   --> A_1  D_1  S_1  
     e(  8 -  8) =    117.02971  eV     1   --> B_1  D_3  S_3  
     e(  9 -  9) =    123.81368  eV     1   --> A_1  D_1  S_1  
     e( 10 - 10) =    140.17580  eV     1   --> A_1  D_1  S_1  
     e( 11 - 11) =    148.63788  eV     1   --> B_2  D_4  S_4  
     e( 12 - 12) =    155.45966  eV     1   --> A_1  D_1  S_1  
     e( 13 - 13) =    165.31810  eV     1   --> B_2  D_4  S_4  
     e( 14 - 14) =    177.52829  eV     1   --> B_1  D_3  S_3  

 **************************************************************************

 **************************************************************************

                    xk=(   0.20000,   0.20000,   0.00000  )

     Band symmetry, C_2v (mm2)  point group:

     e(  1 -  1) =      8.70658  eV     1   --> A_1  D_1  S_1  
     e(  2 -  2) =     65.83899  eV     1   --> A_1  D_1  S_1  
     e(  3 -  3) =     68.60756  eV     1   --> B_2  D_4  S_4  
     e(  4 -  4) =     72.88156  eV     1   --> B_1  D_3  S_3  
     e(  5 -  5) =    103.88857  eV     1   --> B_2  D_4  S_4  
     e(  6 -  6) =    106.40369  eV     1   --> A_2  D_2  S_2  
     e(  7 -  7) =    109.16940  eV     1   --> A_1  D_1  S_1  
     e(  8 -  8) =    117.01503  eV     1   --> B_1  D_3  S_3  
     e(  9 -  9) =    122.11235  eV     1   --> A_1  D_1  S_1  
     e( 10 - 10) =    138.69328  eV     1   --> A_1  D_1  S_1  
     e( 11 - 11) =    146.20164  eV     1   --> B_2  D_4  S_4  
     e( 12 - 12) =    155.14532  eV     1   --> A_1  D_1  S_1  
     e( 13 - 13) =    163.43524  eV     1   --> B_2  D_4  S_4  
     e( 14 - 14) =    172.08020  eV     1   --> B_1  D_3  S_3  

 **************************************************************************

 **************************************************************************

                    xk=(   0.17500,   0.17500,   0.00000  )

     Band symmetry, C_2v (mm2)  point group:

     e(  1 -  1) =      8.18771  eV     1   --> A_1  D_1  S_1  
     e(  2 -  2) =     67.30399  eV     1   --> A_1  D_1  S_1  
     e(  3 -  3) =     69.64351  eV     1   --> B_2  D_4  S_4  
     e(  4 -  4) =     73.00651  eV     1   --> B_1  D_3  S_3  
     e(  5 -  5) =    103.92979  eV     1   --> B_2  D_4  S_4  
     e(  6 -  6) =    105.85575  eV     1   --> A_2  D_2  S_2  
     e(  7 -  7) =    108.74387  eV     1   --> A_1  D_1  S_1  
     e(  8 -  8) =    118.01203  eV     1   --> B_1  D_3  S_3  
     e(  9 -  9) =    122.16901  eV     1   --> A_1  D_1  S_1  
     e( 10 - 10) =    137.45933  eV     1   --> A_1  D_1  S_1  
     e( 11 - 11) =    144.13029  eV     1   --> B_2  D_4  S_4  
     e( 12 - 12) =    155.27754  eV     1   --> A_1  D_1  S_1  
     e( 13 - 13) =    162.18091  eV     1   --> B_2  D_4  S_4  
     e( 14 - 14) =    169.29001  eV     1   --> B_1  D_3  S_3  

 **************************************************************************

 **************************************************************************

                    xk=(   0.15000,   0.15000,   0.00000  )

     Band symmetry, C_2v (mm2)  point group:

     e(  1 -  1) =      7.73710  eV     1   --> A_1  D_1  S_1  
     e(  2 -  2) =     68.70010  eV     1   --> A_1  D_1  S_1  
     e(  3 -  3) =     70.57610  eV     1   --> B_2  D_4  S_4  
     e(  4 -  4) =     73.10221  eV     1   --> B_1  D_3  S_3  
     e(  5 -  5) =    104.07612  eV     1   --> B_2  D_4  S_4  
     e(  6 -  6) =    105.37994  eV     1   --> A_2  D_2  S_2  
     e(  7 -  7) =    108.13365  eV     1   --> A_1  D_1  S_1  
     e(  8 -  8) =    119.03772  eV     1   --> B_1  D_3  S_3  
     e(  9 -  9) =    122.31213  eV     1   --> A_1  D_1  S_1  
     e( 10 - 10) =    136.40651  eV     1   --> A_1  D_1  S_1  
     e( 11 - 11) =    142.13500  eV     1   --> B_2  D_4  S_4  
     e( 12 - 12) =    155.60401  eV     1   --> A_1  D_1  S_1  
     e( 13 - 13) =    161.15078  eV     1   --> B_2  D_4  S_4  
     e( 14 - 14) =    166.71623  eV     1   --> B_1  D_3  S_3  

 **************************************************************************

 **************************************************************************

                    xk=(   0.12500,   0.12500,   0.00000  )

     Band symmetry, C_2v (mm2)  point group:

     e(  1 -  1) =      7.35557  eV     1   --> A_1  D_1  S_1  
     e(  2 -  2) =     69.99544  eV     1   --> A_1  D_1  S_1  
     e(  3 -  3) =     71.39192  eV     1   --> B_2  D_4  S_4  
     e(  4 -  4) =     73.17360  eV     1   --> B_1  D_3  S_3  
     e(  5 -  5) =    104.31032  eV     1   --> B_2  D_4  S_4  
     e(  6 -  6) =    104.97667  eV     1   --> A_2  D_2  S_2  
     e(  7 -  7) =    107.41579  eV     1   --> A_1  D_1  S_1  
     e(  8 -  8) =    120.05074  eV     1   --> B_1  D_3  S_3  
     e(  9 -  9) =    122.49460  eV     1   --> A_1  D_1  S_1  
     e( 10 - 10) =    135.54041  eV     1   --> A_1  D_1  S_1  
     e( 11 - 11) =    140.27446  eV     1   --> B_2  D_4  S_4  
     e( 12 - 12) =    156.09177  eV     1   --> A_1  D_1  S_1  
     e( 13 - 13) =    160.31858  eV     1   --> B_2  D_4  S_4  
     e( 14 - 14) =    164.39852  eV     1   --> B_1  D_3  S_3  

 **************************************************************************

 **************************************************************************

                    xk=(   0.10000,   0.10000,   0.00000  )

     Band symmetry, C_2v (mm2)  point group:

     e(  1 -  1) =      7.04381  eV     1   --> A_1  D_1  S_1  
     e(  2 -  2) =     71.15242  eV     1   --> A_1  D_1  S_1  
     e(  3 -  3) =     72.07978  eV     1   --> B_2  D_4  S_4  
     e(  4 -  4) =     73.22525  eV     1   --> B_1  D_3  S_3  
     e(  5 -  5) =    104.60693  eV     1   --> B_2  D_4  S_4  
     e(  6 -  6) =    104.64629  eV     1   --> A_2  D_2  S_2  
     e(  7 -  7) =    106.67198  eV     1   --> A_1  D_1  S_1  
     e(  8 -  8) =    121.00179  eV     1   --> B_1  D_3  S_3  
     e(  9 -  9) =    122.67794  eV     1   --> A_1  D_1  S_1  
     e( 10 - 10) =    134.85817  eV     1   --> A_1  D_1  S_1  
     e( 11 - 11) =    138.60852  eV     1   --> B_2  D_4  S_4  
     e( 12 - 12) =    156.69370  eV     1   --> A_1  D_1  S_1  
     e( 13 - 13) =    159.66244  eV     1   --> B_2  D_4  S_4  
     e( 14 - 14) =    162.38400  eV     1   --> B_1  D_3  S_3  

 **************************************************************************

 **************************************************************************

                    xk=(   0.07500,   0.07500,   0.00000  )

     Band symmetry, C_2v (mm2)  point group:

     e(  1 -  1) =      6.70272  eV     1   --> A_1  D_1  S_1  
     e(  2 -  2) =     71.96598  eV     1   --> A_1  D_1  S_1  
     e(  3 -  3) =     72.59975  eV     1   --> B_2  D_4  S_4  
     e(  4 -  4) =     73.26111  eV     1   --> B_1  D_3  S_3  
     e(  5 -  5) =    103.73022  eV     1   --> B_2  D_4  S_4  
     e(  6 -  6) =    104.38904  eV     1   --> A_2  D_2  S_2  
     e(  7 -  7) =    105.09551  eV     1   --> A_1  D_1  S_1  
     e(  8 -  8) =    121.83449  eV     1   --> B_1  D_3  S_3  
     e(  9 -  9) =    122.81983  eV     1   --> A_1  D_1  S_1  
     e( 10 - 10) =    134.23313  eV     1   --> A_1  D_1  S_1  
     e( 11 - 11) =    136.54232  eV     1   --> B_2  D_4  S_4  
     e( 12 - 12) =    157.29915  eV     1   --> A_1  D_1  S_1  
     e( 13 - 13) =    159.03776  eV     1   --> B_2  D_4  S_4  
     e( 14 - 14) =    160.72688  eV     1   --> B_1  D_3  S_3  

 **************************************************************************

 **************************************************************************

                    xk=(   0.05000,   0.05000,   0.00000  )

     Band symmetry, C_2v (mm2)  point group:

     e(  1 -  1) =      6.52573  eV     1   --> A_1  D_1  S_1  
     e(  2 -  2) =     72.69137  eV     1   --> A_1  D_1  S_1  
     e(  3 -  3) =     72.98817  eV     1   --> B_2  D_4  S_4  
     e(  4 -  4) =     73.28436  eV     1   --> B_1  D_3  S_3  
     e(  5 -  5) =    103.89864  eV     1   --> B_2  D_4  S_4  
     e(  6 -  6) =    104.20516  eV     1   --> A_2  D_2  S_2  
     e(  7 -  7) =    104.54116  eV     1   --> A_1  D_1  S_1  
     e(  8 -  8) =    122.48888  eV     1   --> B_1  D_3  S_3  
     e(  9 -  9) =    122.94977  eV     1   --> A_1  D_1  S_1  
     e( 10 - 10) =    133.85996  eV     1   --> A_1  D_1  S_1  
     e( 11 - 11) =    135.54987  eV     1   --> B_2  D_4  S_4  
     e( 12 - 12) =    157.88078  eV     1   --> A_1  D_1  S_1  
     e( 13 - 13) =    158.70953  eV     1   --> B_2  D_4  S_4  
     e( 14 - 14) =    159.48514  eV     1   --> B_1  D_3  S_3  

 **************************************************************************

 **************************************************************************

                    xk=(   0.02500,   0.02500,   0.00000  )

     Band symmetry, C_2v (mm2)  point group:

     e(  1 -  1) =      6.41943  eV     1   --> A_1  D_1  S_1  
     e(  2 -  2) =     73.14631  eV     1   --> A_1  D_1  S_1  
     e(  3 -  3) =     73.22298  eV     1   --> B_2  D_4  S_4  
     e(  4 -  4) =     73.29736  eV     1   --> B_1  D_3  S_3  
     e(  5 -  5) =    104.01591  eV     1   --> B_2  D_4  S_4  
     e(  6 -  6) =    104.09477  eV     1   --> A_2  D_2  S_2  
     e(  7 -  7) =    104.18225  eV     1   --> A_1  D_1  S_1  
     e(  8 -  8) =    122.90904  eV     1   --> B_1  D_3  S_3  
     e(  9 -  9) =    123.02809  eV     1   --> A_1  D_1  S_1  
     e( 10 - 10) =    133.64094  eV     1   --> A_1  D_1  S_1  
     e( 11 - 11) =    134.93356  eV     1   --> B_2  D_4  S_4  
     e( 12 - 12) =    158.29800  eV     1   --> A_1  D_1  S_1  
     e( 13 - 13) =    158.51527  eV     1   --> B_2  D_4  S_4  
     e( 14 - 14) =    158.71320  eV     1   --> B_1  D_3  S_3  

 **************************************************************************

 **************************************************************************

                    xk=(   0.00000,   0.00000,   0.00000  )

     point group O_h (m-3m) 
     there are 10 classes
     the character table:

       E     8C3   3C2   6C4   6C2'  i     8S6   3s_h  6S4   6s_d 
A_1g   1.00  1.00  1.00  1.00  1.00  1.00  1.00  1.00  1.00  1.00
A_2g   1.00  1.00  1.00 -1.00 -1.00  1.00  1.00  1.00 -1.00 -1.00
E_g    2.00 -1.00  2.00  0.00  0.00  2.00 -1.00  2.00  0.00  0.00
T_1g   3.00  0.00 -1.00  1.00 -1.00  3.00  0.00 -1.00  1.00 -1.00
T_2g   3.00  0.00 -1.00 -1.00  1.00  3.00  0.00 -1.00 -1.00  1.00
A_1u   1.00  1.00  1.00  1.00  1.00 -1.00 -1.00 -1.00 -1.00 -1.00
A_2u   1.00  1.00  1.00 -1.00 -1.00 -1.00 -1.00 -1.00  1.00  1.00
E_u    2.00 -1.00  2.00  0.00  0.00 -2.00  1.00 -2.00  0.00  0.00
T_1u   3.00  0.00 -1.00  1.00 -1.00 -3.00  0.00  1.00 -1.00  1.00
T_2u   3.00  0.00 -1.00 -1.00  1.00 -3.00  0.00  1.00  1.00 -1.00

     the symmetry operations in each class and the name of the first element:

     E        1
                                                                 
     8C3     17   19   20   18   24   21   22   23
                                                                 
     3C2      2    4    3
                                                                 
     6C4      7    8   15   16   12   11
                                                                 
     6C2'     5    6   14   13   10    9
                                                                 
     i       25
                                                                 
     8S6     41   43   44   42   48   45   46   47
                                                                 
     3s_h    26   28   27
                                                                 
     6S4     31   32   39   40   36   35
                                                                 
     6s_d    29   30   38   37   34   33
                                                                 

     Band symmetry, O_h (m-3m)  point group:

     e(  1 -  1) =      6.38397  eV     1   --> A_1g G_1   G_1+
     e(  2 -  4) =     73.30153  eV     3   --> T_1u G_15  G_4-
     e(  5 -  7) =    104.05796  eV     3   --> T_2g G_25' G_5+
     e(  8 -  9) =    123.05414  eV     2   --> E_g  G_12  G_3+
     e( 10 - 10) =    133.56882  eV     1   --> A_1g G_1   G_1+
     e( 11 - 11) =    134.72442  eV     1   --> A_2u G_2'  G_2-
     e( 12 - 14) =    158.45095  eV     3   --> T_1u G_15  G_4-

 **************************************************************************

     BANDS        :      0.52s CPU      1.10s WALL


   This run was terminated on:  16: 9:59  23Sep2024            

=------------------------------------------------------------------------------=
   JOB DONE.
=------------------------------------------------------------------------------=
