
     Program PWSCF v.6.7MaX starts on 23Sep2024 at 15:39:46 

     This program is part of the open-source Quantum ESPRESSO suite
     for quantum simulation of materials; please cite
         "P. Giannozzi et al., J. Phys.:Condens. Matter 21 395502 (2009);
         "P. Giannozzi et al., J. Phys.:Condens. Matter 29 465901 (2017);
          URL http://www.quantum-espresso.org", 
     in publications or presentations arising from this work. More details at
     http://www.quantum-espresso.org/quote

     Parallel version (MPI), running on     1 processors

     MPI processes distributed on     1 nodes
     Waiting for input...
     Reading input from standard input

     Current dimensions of program PWSCF are:
     Max number of different atomic species (ntypx) = 10
     Max number of k-points (npk) =  40000
     Max angular momentum in pseudopotentials (lmaxx) =  3
     Message from routine read_pp_mesh:
     mesh size missing, using the one in header

     Subspace diagonalization in iterative solution of the eigenvalue problem:
     a serial algorithm will be used


     G-vector sticks info
     --------------------
     sticks:   dense  smooth     PW     G-vecs:    dense   smooth      PW
     Sum          85      61     31                  531      339     113



     bravais-lattice index     =            2
     lattice parameter (alat)  =       4.0862  a.u.
     unit-cell volume          =      17.0569 (a.u.)^3
     number of atoms/cell      =            1
     number of atomic types    =            1
     number of electrons       =        19.00
     number of Kohn-Sham states=           14
     kinetic-energy cutoff     =      30.0000  Ry
     charge density cutoff     =     150.0000  Ry
     scf convergence threshold =      1.0E-08
     mixing beta               =       0.7000
     number of iterations used =            8  plain     mixing
     Exchange-correlation= PBE
                           (   1   4   3   4   0   0   0)

     celldm(1)=   4.086200  celldm(2)=   0.000000  celldm(3)=   0.000000
     celldm(4)=   0.000000  celldm(5)=   0.000000  celldm(6)=   0.000000

     crystal axes: (cart. coord. in units of alat)
               a(1) = (  -0.500000   0.000000   0.500000 )  
               a(2) = (   0.000000   0.500000   0.500000 )  
               a(3) = (  -0.500000   0.500000   0.000000 )  

     reciprocal axes: (cart. coord. in units 2 pi/alat)
               b(1) = ( -1.000000 -1.000000  1.000000 )  
               b(2) = (  1.000000  1.000000  1.000000 )  
               b(3) = ( -1.000000  1.000000 -1.000000 )  


     PseudoPot. # 1 for Ag read from file:
     ./pp/Ag.upf
     MD5 check sum: 5c15ac5abd22ca6a4a3ac0571d057869
     Pseudo is Norm-conserving + core correction, Zval = 19.0
     Generated using ONCVPSP code by D. R. Hamann
     Using radial grid of 1538 points,  6 beta functions with: 
                l(1) =   0
                l(2) =   0
                l(3) =   1
                l(4) =   1
                l(5) =   2
                l(6) =   2

     atomic species   valence    mass     pseudopotential
        Ag            19.00   107.86820     Ag( 1.00)

     48 Sym. Ops., with inversion, found



   Cartesian axes

     site n.     atom                  positions (alat units)
         1           Ag  tau(   1) = (   0.0000000   0.0000000   0.0000000  )

     number of k points=     8  Methfessel-Paxton smearing, width (Ry)=  0.0100
                       cart. coord. in units 2pi/alat
        k(    1) = (   0.0000000   0.0000000   0.0000000), wk =   0.0312500
        k(    2) = (  -0.2500000   0.2500000  -0.2500000), wk =   0.2500000
        k(    3) = (   0.5000000  -0.5000000   0.5000000), wk =   0.1250000
        k(    4) = (   0.0000000   0.5000000   0.0000000), wk =   0.1875000
        k(    5) = (   0.7500000  -0.2500000   0.7500000), wk =   0.7500000
        k(    6) = (   0.5000000   0.0000000   0.5000000), wk =   0.3750000
        k(    7) = (   0.0000000  -1.0000000   0.0000000), wk =   0.0937500
        k(    8) = (  -0.5000000  -1.0000000   0.0000000), wk =   0.1875000

     Dense  grid:      531 G-vectors     FFT dimensions: (  12,  12,  12)

     Smooth grid:      339 G-vectors     FFT dimensions: (   9,   9,   9)

     Estimated max dynamical RAM per process >       1.50 MB

     Check: negative core charge=   -0.000198

     Initial potential from superposition of free atoms

     starting charge   18.99954, renormalised to   19.00000
     Starting wfcs are   10 randomized atomic wfcs +    4 random wfcs

     total cpu time spent up to now is        0.3 secs

     Self-consistent Calculation

     iteration #  1     ecut=    30.00 Ry     beta= 0.70
     Davidson diagonalization with overlap
     ethr =  1.00E-02,  avg # of iterations =  3.8

     Threshold (ethr) on eigenvalues was too large:
     Diagonalizing with lowered threshold

     Davidson diagonalization with overlap
     ethr =  2.03E-04,  avg # of iterations =  1.1

     total cpu time spent up to now is        0.3 secs

     total energy              =    -293.20512183 Ry
     estimated scf accuracy    <       0.03857327 Ry

     iteration #  2     ecut=    30.00 Ry     beta= 0.70
     Davidson diagonalization with overlap
     ethr =  2.03E-04,  avg # of iterations =  1.0

     total cpu time spent up to now is        0.4 secs

     total energy              =    -293.20693419 Ry
     estimated scf accuracy    <       0.00338383 Ry

     iteration #  3     ecut=    30.00 Ry     beta= 0.70
     Davidson diagonalization with overlap
     ethr =  1.78E-05,  avg # of iterations =  1.0

     total cpu time spent up to now is        0.4 secs

     total energy              =    -293.20695755 Ry
     estimated scf accuracy    <       0.00000636 Ry

     iteration #  4     ecut=    30.00 Ry     beta= 0.70
     Davidson diagonalization with overlap
     ethr =  3.35E-08,  avg # of iterations =  1.2

     total cpu time spent up to now is        0.4 secs

     total energy              =    -293.20695810 Ry
     estimated scf accuracy    <       0.00000006 Ry

     iteration #  5     ecut=    30.00 Ry     beta= 0.70
     Davidson diagonalization with overlap
     ethr =  3.14E-10,  avg # of iterations =  1.5

     total cpu time spent up to now is        0.4 secs

     End of self-consistent calculation

          k = 0.0000 0.0000 0.0000 (    59 PWs)   bands (ev):

     6.3840  73.3015  73.3015  73.3015 104.0580 104.0580 104.0580 123.0541
   123.0541 133.5689 134.7244 158.4510 158.4510 158.4510

          k =-0.2500 0.2500-0.2500 (    52 PWs)   bands (ev):

    11.8340  55.6886  70.4988  70.4988 103.7488 107.8879 107.8879 123.9700
   123.9700 137.0584 147.8134 167.3367 181.5831 181.5831

          k = 0.5000-0.5000 0.5000 (    40 PWs)   bands (ev):

    22.4850  37.7901  68.7060  68.7060 104.3685 104.7472 104.7472 131.5924
   145.1194 145.1194 161.0498 174.6879 174.6879 198.8436

          k = 0.0000 0.5000 0.0000 (    52 PWs)   bands (ev):

    13.5042  60.5118  64.5579  64.5579  91.7354 100.4618 123.5000 123.5000
   129.5483 151.2162 164.7151 167.3321 171.9522 171.9522

          k = 0.7500-0.2500 0.7500 (    48 PWs)   bands (ev):

    23.7657  43.9731  55.8550  62.9197  92.4559 106.4346 119.1024 126.9511
   145.1768 157.2325 169.8759 179.0249 181.3652 197.8508

          k = 0.5000 0.0000 0.5000 (    49 PWs)   bands (ev):

    19.7360  49.8089  53.3010  67.8179  99.8162 113.3953 115.4549 119.0779
   127.5223 156.1932 168.9503 173.2527 175.7023 197.4398

          k = 0.0000-1.0000 0.0000 (    40 PWs)   bands (ev):

    29.1415  40.5017  59.1706  59.1706  84.9672  88.9519 143.9311 152.2617
   152.2617 168.3139 171.5370 171.5370 187.6589 193.2528

          k =-0.5000-1.0000 0.0000 (    44 PWs)   bands (ev):

    29.7223  47.0079  47.0079  54.6106 102.4330 110.8043 110.8043 123.4677
   152.1922 176.8778 176.8778 179.9289 186.2636 195.3318

     the Fermi energy is   156.1658 ev

!    total energy              =    -293.20695813 Ry
     estimated scf accuracy    <          4.7E-10 Ry
     smearing contrib. (-TS)   =      -0.00046670 Ry
     internal energy E=F+TS    =    -293.20649143 Ry

     The total energy is F=E-TS. E is the sum of the following terms:
     one-electron contribution =     156.52237602 Ry
     hartree contribution      =       7.44817021 Ry
     xc contribution           =     -52.12216787 Ry
     ewald contribution        =    -405.05486979 Ry

     convergence has been achieved in   5 iterations

     Writing output data file ./work_Ag/Ag.save/

     init_run     :      0.10s CPU      0.13s WALL (       1 calls)
     electrons    :      0.08s CPU      0.20s WALL (       1 calls)

     Called by init_run:
     wfcinit      :      0.01s CPU      0.01s WALL (       1 calls)
     potinit      :      0.00s CPU      0.01s WALL (       1 calls)
     hinit0       :      0.09s CPU      0.10s WALL (       1 calls)

     Called by electrons:
     c_bands      :      0.07s CPU      0.16s WALL (       6 calls)
     sum_band     :      0.00s CPU      0.01s WALL (       6 calls)
     v_of_rho     :      0.00s CPU      0.00s WALL (       6 calls)
     mix_rho      :      0.00s CPU      0.00s WALL (       6 calls)

     Called by c_bands:
     init_us_2    :      0.00s CPU      0.00s WALL (     104 calls)
     cegterg      :      0.05s CPU      0.05s WALL (      48 calls)

     Called by *egterg:
     cdiaghg      :      0.02s CPU      0.03s WALL (     117 calls)
     h_psi        :      0.02s CPU      0.02s WALL (     133 calls)
     g_psi        :      0.00s CPU      0.00s WALL (      77 calls)

     Called by h_psi:
     h_psi:calbec :      0.00s CPU      0.00s WALL (     133 calls)
     vloc_psi     :      0.02s CPU      0.02s WALL (     133 calls)
     add_vuspsi   :      0.00s CPU      0.00s WALL (     133 calls)

     General routines
     calbec       :      0.00s CPU      0.00s WALL (     133 calls)
     fft          :      0.00s CPU      0.01s WALL (      71 calls)
     ffts         :      0.00s CPU      0.00s WALL (      12 calls)
     fftw         :      0.01s CPU      0.01s WALL (    3886 calls)
     interpolate  :      0.00s CPU      0.00s WALL (       6 calls)

     Parallel routines

     PWSCF        :      0.22s CPU      0.58s WALL


   This run was terminated on:  15:39:46  23Sep2024            

=------------------------------------------------------------------------------=
   JOB DONE.
=------------------------------------------------------------------------------=
